Material ID,Composition,Band Gap,Calc Types
mp-2231980,Mg1 Sc1 Cr2 Ag1 H4 O10,0.9857,{'mp-2231980': <CalcType.GGA_U_Structure_Optimization: 'GGA+U Structure Optimization'>}
mp-2230097,K2 Mg1 Cr2 Cd1 H4 O10,1.1116,{'mp-2230097': <CalcType.GGA_U_Structure_Optimization: 'GGA+U Structure Optimization'>}
mp-2229343,Cs1 Mg1 Mn1 P3 H1 O10,0.32920000000000005,{'mp-2229343': <CalcType.GGA_U_Structure_Optimization: 'GGA+U Structure Optimization'>}
mp-2231018,Mg1 Ti2 Tl2 W2 O10 F2,1.5062000000000002,{'mp-2231018': <CalcType.GGA_U_Structure_Optimization: 'GGA+U Structure Optimization'>}
mp-2229931,Cs1 Mg1 Mn1 P3 H1 O10,2.288399999999999,{'mp-2229931': <CalcType.GGA_U_Structure_Optimization: 'GGA+U Structure Optimization'>}
mp-2232745,Mg1 Fe1 Cu1 As2 Pb1 O10,0.3859,"{'mp-2233271': <CalcType.GGA_U_Structure_Optimization: 'GGA+U Structure Optimization'>, 'mp-2233294': <CalcType.GGA_U_Static: 'GGA+U Static'>, 'mp-2232745': <CalcType.GGA_U_Structure_Optimization: 'GGA+U Structure Optimization'>, 'mp-2233327': <CalcType.GGA_U_Static: 'GGA+U Static'>}"
mp-2230022,Ba2 Mg1 Mn3 Tl2 Zn2 O10,0.0,{'mp-2230022': <CalcType.GGA_U_Structure_Optimization: 'GGA+U Structure Optimization'>}
mp-2231287,K2 Na2 Nd2 Mg1 Nb2 O10,0.7835000000000001,{'mp-2231287': <CalcType.GGA_Structure_Optimization: 'GGA Structure Optimization'>}
mp-24705,Sr1 Ca1 B5 H2 Cl1 O10,4.9698,"{'mp-742542': <CalcType.GGA_NSCF_Line: 'GGA NSCF Line'>, 'mp-731451': <CalcType.GGA_Static: 'GGA Static'>, 'mp-24705': <CalcType.GGA_Structure_Optimization: 'GGA Structure Optimization'>, 'mp-1105813': <CalcType.GGA_Structure_Optimization: 'GGA Structure Optimization'>, 'mp-1172929': <CalcType.GGA_Structure_Optimization: 'GGA Structure Optimization'>, 'mp-1414482': <CalcType.GGA_Static: 'GGA Static'>, 'mp-1674146': <CalcType.GGA_NSCF_Uniform: 'GGA NSCF Uniform'>, 'mp-749590': <CalcType.GGA_NSCF_Line: 'GGA NSCF Line'>, 'mp-1603103': <CalcType.GGA_NSCF_Line: 'GGA NSCF Line'>, 'mp-2182097': <CalcType.GGA_NSCF_Line: 'GGA NSCF Line'>, 'mp-2447366': <CalcType.GGA_NSCF_Line: 'GGA NSCF Line'>, 'mp-1829328': <CalcType.GGA_Static: 'GGA Static'>}"
mp-534863,Ca4 Mg8 Ti4 Al8 Si4 O40,2.3238,"{'mp-724564': <CalcType.GGA_Static: 'GGA Static'>, 'mp-739192': <CalcType.GGA_NSCF_Line: 'GGA NSCF Line'>, 'mp-534863': <CalcType.GGA_Structure_Optimization: 'GGA Structure Optimization'>, 'mp-1133948': <CalcType.GGA_Structure_Optimization: 'GGA Structure Optimization'>, 'mp-1248463': <CalcType.GGA_Structure_Optimization: 'GGA Structure Optimization'>, 'mp-1249547': <CalcType.GGA_NMR_Electric_Field_Gradient: 'GGA NMR Electric Field Gradient'>, 'mp-1255113': <CalcType.GGA_NMR_Nuclear_Shielding: 'GGA NMR Nuclear Shielding'>, 'mp-1258375': <CalcType.GGA_NMR_Electric_Field_Gradient: 'GGA NMR Electric Field Gradient'>, 'mp-1264888': <CalcType.GGA_NMR_Nuclear_Shielding: 'GGA NMR Nuclear Shielding'>, 'mp-1267790': <CalcType.GGA_Structure_Optimization: 'GGA Structure Optimization'>, 'mp-1324356': <CalcType.GGA_Static: 'GGA Static'>, 'mp-1884140': <CalcType.GGA_Static: 'GGA Static'>}"
mp-695655,K2 Ga2 B2 P4 H6 O20,0.0,"{'mp-695655': <CalcType.GGA_Structure_Optimization: 'GGA Structure Optimization'>, 'mp-1358570': <CalcType.GGA_Static: 'GGA Static'>, 'mp-1822262': <CalcType.GGA_Static: 'GGA Static'>}"
mp-759083,Li3 V1 Fe1 P2 H2 O10,0.0,"{'mp-1307573': <CalcType.GGA_U_Structure_Optimization: 'GGA+U Structure Optimization'>, 'mp-1316018': <CalcType.GGA_U_Static: 'GGA+U Static'>, 'mp-801326': <CalcType.GGA_U_Static: 'GGA+U Static'>, 'mp-765312': <CalcType.GGA_U_Structure_Optimization: 'GGA+U Structure Optimization'>, 'mp-808252': <CalcType.GGA_U_NSCF_Line: 'GGA+U NSCF Line'>, 'mp-759083': <CalcType.GGA_Structure_Optimization: 'GGA Structure Optimization'>, 'mp-1333179': <CalcType.GGA_U_Static: 'GGA+U Static'>, 'mp-808928': <CalcType.GGA_U_NSCF_Line: 'GGA+U NSCF Line'>, 'mp-1659790': <CalcType.GGA_U_Static: 'GGA+U Static'>}"
mp-759803,Li6 V3 Cr3 P6 H6 O30,1.9954,"{'mp-765059': <CalcType.GGA_U_Structure_Optimization: 'GGA+U Structure Optimization'>, 'mp-806030': <CalcType.GGA_U_Static: 'GGA+U Static'>, 'mp-808226': <CalcType.GGA_U_NSCF_Line: 'GGA+U NSCF Line'>, 'mp-759803': <CalcType.GGA_Structure_Optimization: 'GGA Structure Optimization'>, 'mp-1350518': <CalcType.GGA_U_Static: 'GGA+U Static'>, 'mp-808874': <CalcType.GGA_U_NSCF_Line: 'GGA+U NSCF Line'>, 'mp-1875397': <CalcType.GGA_U_Static: 'GGA+U Static'>, 'mp-881418': <CalcType.GGA_Static: 'GGA Static'>}"
mp-759865,Li3 V3 Cr3 P6 H6 O30,1.2776,"{'mp-881446': <CalcType.GGA_Static: 'GGA Static'>, 'mp-1679963': <CalcType.GGA_U_NSCF_Uniform: 'GGA+U NSCF Uniform'>, 'mp-765072': <CalcType.GGA_U_Structure_Optimization: 'GGA+U Structure Optimization'>, 'mp-801217': <CalcType.GGA_U_Static: 'GGA+U Static'>, 'mp-808048': <CalcType.GGA_U_NSCF_Line: 'GGA+U NSCF Line'>, 'mp-759865': <CalcType.GGA_Structure_Optimization: 'GGA Structure Optimization'>, 'mp-1351048': <CalcType.GGA_U_Static: 'GGA+U Static'>, 'mp-808873': <CalcType.GGA_U_NSCF_Line: 'GGA+U NSCF Line'>, 'mp-1871481': <CalcType.GGA_U_Static: 'GGA+U Static'>}"
mp-760158,Li3 Mn3 V3 P6 H6 O30,0.8605,"{'mp-765103': <CalcType.GGA_U_Structure_Optimization: 'GGA+U Structure Optimization'>, 'mp-801199': <CalcType.GGA_U_Static: 'GGA+U Static'>, 'mp-807076': <CalcType.GGA_U_NSCF_Line: 'GGA+U NSCF Line'>, 'mp-760158': <CalcType.GGA_Structure_Optimization: 'GGA Structure Optimization'>, 'mp-1349417': <CalcType.GGA_U_Static: 'GGA+U Static'>, 'mp-808178': <CalcType.GGA_U_NSCF_Line: 'GGA+U NSCF Line'>, 'mp-881420': <CalcType.GGA_Static: 'GGA Static'>, 'mp-1684941': <CalcType.GGA_U_NSCF_Uniform: 'GGA+U NSCF Uniform'>, 'mp-1863482': <CalcType.GGA_U_Static: 'GGA+U Static'>}"
mp-753439,Li6 Mn2 V2 P4 H4 O20,2.0613,"{'mp-1280533': <CalcType.GGA_U_Structure_Optimization: 'GGA+U Structure Optimization'>, 'mp-1287529': <CalcType.GGA_U_Static: 'GGA+U Static'>, 'mp-1275711': <CalcType.GGA_U_Structure_Optimization: 'GGA+U Structure Optimization'>, 'mp-1310204': <CalcType.GGA_U_Static: 'GGA+U Static'>, 'mp-1313221': <CalcType.GGA_U_Static: 'GGA+U Static'>, 'mp-1315566': <CalcType.GGA_U_Static: 'GGA+U Static'>, 'mp-1319337': <CalcType.GGA_U_Static: 'GGA+U Static'>, 'mp-1321681': <CalcType.GGA_U_Structure_Optimization: 'GGA+U Structure Optimization'>, 'mp-1308273': <CalcType.GGA_U_Static: 'GGA+U Static'>, 'mp-1307570': <CalcType.GGA_U_Structure_Optimization: 'GGA+U Structure Optimization'>, 'mp-1312167': <CalcType.GGA_U_Structure_Optimization: 'GGA+U Structure Optimization'>, 'mp-1321161': <CalcType.GGA_U_Structure_Optimization: 'GGA+U Structure Optimization'>, 'mp-801896': <CalcType.GGA_U_Static: 'GGA+U Static'>, 'mp-808608': <CalcType.GGA_U_NSCF_Line: 'GGA+U NSCF Line'>, 'mp-765960': <CalcType.GGA_U_Structure_Optimization: 'GGA+U Structure Optimization'>, 'mp-753439': <CalcType.GGA_Structure_Optimization: 'GGA Structure Optimization'>, 'mp-1341202': <CalcType.GGA_U_Static: 'GGA+U Static'>, 'mp-809259': <CalcType.GGA_U_NSCF_Line: 'GGA+U NSCF Line'>}"
mp-753729,Li1 Mn1 V1 P2 H2 O10,1.0341,"{'mp-766999': <CalcType.GGA_U_Structure_Optimization: 'GGA+U Structure Optimization'>, 'mp-1236028': <CalcType.GGA_U_Structure_Optimization: 'GGA+U Structure Optimization'>, 'mp-1236509': <CalcType.GGA_U_Static: 'GGA+U Static'>, 'mp-753729': <CalcType.GGA_Structure_Optimization: 'GGA Structure Optimization'>, 'mp-1299571': <CalcType.GGA_U_Static: 'GGA+U Static'>, 'mp-1290691': <CalcType.GGA_U_Static: 'GGA+U Static'>, 'mp-1295228': <CalcType.GGA_U_Static: 'GGA+U Static'>, 'mp-1287579': <CalcType.GGA_U_Structure_Optimization: 'GGA+U Structure Optimization'>, 'mp-1297695': <CalcType.GGA_U_Structure_Optimization: 'GGA+U Structure Optimization'>, 'mp-1303351': <CalcType.GGA_U_Static: 'GGA+U Static'>, 'mp-1316852': <CalcType.GGA_U_Structure_Optimization: 'GGA+U Structure Optimization'>, 'mp-1308697': <CalcType.GGA_U_Structure_Optimization: 'GGA+U Structure Optimization'>, 'mp-1314755': <CalcType.GGA_U_Structure_Optimization: 'GGA+U Structure Optimization'>, 'mp-1316264': <CalcType.GGA_U_Static: 'GGA+U Static'>, 'mp-1305890': <CalcType.GGA_U_Structure_Optimization: 'GGA+U Structure Optimization'>, 'mp-1314191': <CalcType.GGA_U_Structure_Optimization: 'GGA+U Structure Optimization'>, 'mp-1307583': <CalcType.GGA_U_Static: 'GGA+U Static'>, 'mp-1322723': <CalcType.GGA_U_Static: 'GGA+U Static'>, 'mp-1655315': <CalcType.GGA_U_Static: 'GGA+U Static'>}"
mp-759891,Li4 V4 Cr4 P8 H8 O40,1.272299999999999,"{'mp-765109': <CalcType.GGA_U_Structure_Optimization: 'GGA+U Structure Optimization'>, 'mp-801203': <CalcType.GGA_U_Static: 'GGA+U Static'>, 'mp-808049': <CalcType.GGA_U_NSCF_Line: 'GGA+U NSCF Line'>, 'mp-759891': <CalcType.GGA_Structure_Optimization: 'GGA Structure Optimization'>, 'mp-1364032': <CalcType.GGA_U_Static: 'GGA+U Static'>, 'mp-808933': <CalcType.GGA_U_NSCF_Line: 'GGA+U NSCF Line'>, 'mp-1769136': <CalcType.GGA_U_Static: 'GGA+U Static'>, 'mp-1936544': <CalcType.GGA_U_Static: 'GGA+U Static'>}"
mp-760297,Li3 V3 Fe3 P6 H6 O30,1.5384,"{'mp-881438': <CalcType.GGA_Static: 'GGA Static'>, 'mp-801208': <CalcType.GGA_U_Static: 'GGA+U Static'>, 'mp-765068': <CalcType.GGA_U_Structure_Optimization: 'GGA+U Structure Optimization'>, 'mp-807883': <CalcType.GGA_U_NSCF_Line: 'GGA+U NSCF Line'>, 'mp-760297': <CalcType.GGA_Structure_Optimization: 'GGA Structure Optimization'>, 'mp-1349650': <CalcType.GGA_U_Static: 'GGA+U Static'>, 'mp-808183': <CalcType.GGA_U_NSCF_Line: 'GGA+U NSCF Line'>, 'mp-1660069': <CalcType.GGA_U_Static: 'GGA+U Static'>, 'mp-1935379': <CalcType.GGA_U_Static: 'GGA+U Static'>}"
mp-766011,Li3 V1 Cr1 P2 H2 O10,0.0,"{'mp-883570': <CalcType.GGA_Static: 'GGA Static'>, 'mp-767626': <CalcType.GGA_U_Structure_Optimization: 'GGA+U Structure Optimization'>, 'mp-766011': <CalcType.GGA_Structure_Optimization: 'GGA Structure Optimization'>}"
mp-759967,K2 Li2 Mn2 P6 H2 O20,3.7716000000000003,"{'mp-799404': <CalcType.GGA_U_Static: 'GGA+U Static'>, 'mp-764313': <CalcType.GGA_U_Structure_Optimization: 'GGA+U Structure Optimization'>, 'mp-800704': <CalcType.GGA_U_NSCF_Line: 'GGA+U NSCF Line'>, 'mp-759967': <CalcType.GGA_Structure_Optimization: 'GGA Structure Optimization'>, 'mp-829961': <CalcType.GGA_NSCF_Line: 'GGA NSCF Line'>, 'mp-1354567': <CalcType.GGA_U_Static: 'GGA+U Static'>, 'mp-805035': <CalcType.GGA_U_NSCF_Line: 'GGA+U NSCF Line'>, 'mp-830197': <CalcType.GGA_NSCF_Line: 'GGA NSCF Line'>, 'mp-1769055': <CalcType.GGA_U_Static: 'GGA+U Static'>, 'mp-1818302': <CalcType.GGA_U_Static: 'GGA+U Static'>, 'mp-827627': <CalcType.GGA_Static: 'GGA Static'>}"
mp-760055,Li3 Mn3 V3 P6 H6 O30,0.8936000000000001,"{'mp-765378': <CalcType.GGA_U_Structure_Optimization: 'GGA+U Structure Optimization'>, 'mp-801342': <CalcType.GGA_U_Static: 'GGA+U Static'>, 'mp-808270': <CalcType.GGA_U_NSCF_Line: 'GGA+U NSCF Line'>, 'mp-760055': <CalcType.GGA_Structure_Optimization: 'GGA Structure Optimization'>, 'mp-1349618': <CalcType.GGA_U_Static: 'GGA+U Static'>, 'mp-808939': <CalcType.GGA_U_NSCF_Line: 'GGA+U NSCF Line'>, 'mp-1658537': <CalcType.GGA_U_Static: 'GGA+U Static'>, 'mp-1878028': <CalcType.GGA_U_Static: 'GGA+U Static'>}"
mp-760186,Li3 V3 Cr3 P6 H6 O30,1.4341,"{'mp-765123': <CalcType.GGA_U_Structure_Optimization: 'GGA+U Structure Optimization'>, 'mp-801209': <CalcType.GGA_U_Static: 'GGA+U Static'>, 'mp-806898': <CalcType.GGA_U_NSCF_Line: 'GGA+U NSCF Line'>, 'mp-760186': <CalcType.GGA_Structure_Optimization: 'GGA Structure Optimization'>, 'mp-1349162': <CalcType.GGA_U_Static: 'GGA+U Static'>, 'mp-808167': <CalcType.GGA_U_NSCF_Line: 'GGA+U NSCF Line'>, 'mp-1925454': <CalcType.GGA_U_Static: 'GGA+U Static'>}"
mp-765311,Li2 V2 Cr2 P4 H4 O20,1.5227,"{'mp-1299548': <CalcType.GGA_U_Structure_Optimization: 'GGA+U Structure Optimization'>, 'mp-1275472': <CalcType.GGA_U_Structure_Optimization: 'GGA+U Structure Optimization'>, 'mp-1315302': <CalcType.GGA_U_Static: 'GGA+U Static'>, 'mp-1307898': <CalcType.GGA_U_Static: 'GGA+U Static'>, 'mp-1310950': <CalcType.GGA_U_Static: 'GGA+U Static'>, 'mp-1314017': <CalcType.GGA_U_Static: 'GGA+U Static'>, 'mp-1317008': <CalcType.GGA_U_Structure_Optimization: 'GGA+U Structure Optimization'>, 'mp-1306574': <CalcType.GGA_U_Static: 'GGA+U Static'>, 'mp-1309630': <CalcType.GGA_U_Structure_Optimization: 'GGA+U Structure Optimization'>, 'mp-1311918': <CalcType.GGA_U_Static: 'GGA+U Static'>, 'mp-1309124': <CalcType.GGA_U_Structure_Optimization: 'GGA+U Structure Optimization'>, 'mp-1313644': <CalcType.GGA_U_Static: 'GGA+U Static'>, 'mp-1305488': <CalcType.GGA_U_Structure_Optimization: 'GGA+U Structure Optimization'>, 'mp-1316704': <CalcType.GGA_U_Structure_Optimization: 'GGA+U Structure Optimization'>, 'mp-1321219': <CalcType.GGA_U_Static: 'GGA+U Static'>, 'mp-1307813': <CalcType.GGA_U_Structure_Optimization: 'GGA+U Structure Optimization'>, 'mp-765311': <CalcType.GGA_U_Structure_Optimization: 'GGA+U Structure Optimization'>}"
mp-759855,Li3 V3 Fe3 P6 H6 O30,1.4905,"{'mp-881436': <CalcType.GGA_Static: 'GGA Static'>, 'mp-1680694': <CalcType.GGA_U_NSCF_Uniform: 'GGA+U NSCF Uniform'>, 'mp-801213': <CalcType.GGA_U_Static: 'GGA+U Static'>, 'mp-765071': <CalcType.GGA_U_Structure_Optimization: 'GGA+U Structure Optimization'>, 'mp-806900': <CalcType.GGA_U_NSCF_Line: 'GGA+U NSCF Line'>, 'mp-759855': <CalcType.GGA_Structure_Optimization: 'GGA Structure Optimization'>, 'mp-1353451': <CalcType.GGA_U_Static: 'GGA+U Static'>, 'mp-808182': <CalcType.GGA_U_NSCF_Line: 'GGA+U NSCF Line'>, 'mp-1934790': <CalcType.GGA_U_Static: 'GGA+U Static'>}"
mp-759528,Li3 V3 Fe3 P6 H6 O30,1.5659,"{'mp-765075': <CalcType.GGA_U_Structure_Optimization: 'GGA+U Structure Optimization'>, 'mp-801212': <CalcType.GGA_U_Static: 'GGA+U Static'>, 'mp-806897': <CalcType.GGA_U_NSCF_Line: 'GGA+U NSCF Line'>, 'mp-759528': <CalcType.GGA_Structure_Optimization: 'GGA Structure Optimization'>, 'mp-1350959': <CalcType.GGA_U_Static: 'GGA+U Static'>, 'mp-808175': <CalcType.GGA_U_NSCF_Line: 'GGA+U NSCF Line'>, 'mp-1771668': <CalcType.GGA_U_Static: 'GGA+U Static'>, 'mp-1870516': <CalcType.GGA_U_Static: 'GGA+U Static'>}"
mp-760245,Li3 Mn3 V3 P6 H6 O30,1.0078,"{'mp-801201': <CalcType.GGA_U_Static: 'GGA+U Static'>, 'mp-765107': <CalcType.GGA_U_Structure_Optimization: 'GGA+U Structure Optimization'>, 'mp-806795': <CalcType.GGA_U_NSCF_Line: 'GGA+U NSCF Line'>, 'mp-760245': <CalcType.GGA_Structure_Optimization: 'GGA Structure Optimization'>, 'mp-1348817': <CalcType.GGA_U_Static: 'GGA+U Static'>, 'mp-808166': <CalcType.GGA_U_NSCF_Line: 'GGA+U NSCF Line'>, 'mp-1883529': <CalcType.GGA_U_Static: 'GGA+U Static'>}"
mp-760258,Li6 V3 Fe3 P6 H6 O30,1.646,"{'mp-765061': <CalcType.GGA_U_Structure_Optimization: 'GGA+U Structure Optimization'>, 'mp-760258': <CalcType.GGA_Structure_Optimization: 'GGA Structure Optimization'>, 'mp-1352120': <CalcType.GGA_U_Static: 'GGA+U Static'>, 'mp-1883336': <CalcType.GGA_U_Static: 'GGA+U Static'>}"
mp-765988,Li2 V2 Fe2 P4 H4 O20,1.7801,"{'mp-1291728': <CalcType.GGA_U_Structure_Optimization: 'GGA+U Structure Optimization'>, 'mp-1284673': <CalcType.GGA_U_Static: 'GGA+U Static'>, 'mp-1318310': <CalcType.GGA_U_Structure_Optimization: 'GGA+U Structure Optimization'>, 'mp-1303428': <CalcType.GGA_U_Static: 'GGA+U Static'>, 'mp-1303457': <CalcType.GGA_U_Static: 'GGA+U Static'>, 'mp-1303499': <CalcType.GGA_U_Static: 'GGA+U Static'>, 'mp-1319170': <CalcType.GGA_U_Static: 'GGA+U Static'>, 'mp-1311762': <CalcType.GGA_U_Structure_Optimization: 'GGA+U Structure Optimization'>, 'mp-1317009': <CalcType.GGA_U_Static: 'GGA+U Static'>, 'mp-1317777': <CalcType.GGA_U_Static: 'GGA+U Static'>, 'mp-1302135': <CalcType.GGA_U_Structure_Optimization: 'GGA+U Structure Optimization'>, 'mp-1318564': <CalcType.GGA_U_Static: 'GGA+U Static'>, 'mp-1307414': <CalcType.GGA_U_Structure_Optimization: 'GGA+U Structure Optimization'>, 'mp-1322379': <CalcType.GGA_U_Structure_Optimization: 'GGA+U Structure Optimization'>, 'mp-1320185': <CalcType.GGA_U_Static: 'GGA+U Static'>, 'mp-1304557': <CalcType.GGA_U_Structure_Optimization: 'GGA+U Structure Optimization'>, 'mp-1320974': <CalcType.GGA_U_Static: 'GGA+U Static'>, 'mp-1304578': <CalcType.GGA_U_Structure_Optimization: 'GGA+U Structure Optimization'>, 'mp-1315777': <CalcType.GGA_U_Structure_Optimization: 'GGA+U Structure Optimization'>, 'mp-1312060': <CalcType.GGA_U_Structure_Optimization: 'GGA+U Structure Optimization'>, 'mp-1303116': <CalcType.GGA_U_Static: 'GGA+U Static'>, 'mp-1309219': <CalcType.GGA_U_Structure_Optimization: 'GGA+U Structure Optimization'>, 'mp-767445': <CalcType.GGA_U_Structure_Optimization: 'GGA+U Structure Optimization'>, 'mp-765988': <CalcType.GGA_Structure_Optimization: 'GGA Structure Optimization'>}"
mp-776553,Li4 Mn2 V2 P4 H4 O20,0.322999999999999,"{'mp-777212': <CalcType.GGA_U_Structure_Optimization: 'GGA+U Structure Optimization'>, 'mp-806090': <CalcType.GGA_U_Static: 'GGA+U Static'>, 'mp-815165': <CalcType.GGA_U_NSCF_Line: 'GGA+U NSCF Line'>, 'mp-776553': <CalcType.GGA_Structure_Optimization: 'GGA Structure Optimization'>, 'mp-1379323': <CalcType.GGA_U_Static: 'GGA+U Static'>, 'mp-815975': <CalcType.GGA_U_NSCF_Line: 'GGA+U NSCF Line'>, 'mp-1836016': <CalcType.GGA_U_Static: 'GGA+U Static'>}"
mp-778728,Li4 Mn2 V2 P4 H4 O20,0.4796,"{'mp-778728': <CalcType.GGA_U_Structure_Optimization: 'GGA+U Structure Optimization'>, 'mp-807171': <CalcType.GGA_U_Static: 'GGA+U Static'>, 'mp-816065': <CalcType.GGA_U_NSCF_Line: 'GGA+U NSCF Line'>, 'mp-1354269': <CalcType.GGA_U_Static: 'GGA+U Static'>, 'mp-816864': <CalcType.GGA_U_NSCF_Line: 'GGA+U NSCF Line'>, 'mp-1770608': <CalcType.GGA_U_Static: 'GGA+U Static'>, 'mp-1839032': <CalcType.GGA_U_Static: 'GGA+U Static'>}"
mp-801332,Li1 V1 Cr1 P2 H2 O10,0.0,"{'mp-881599': <CalcType.GGA_Static: 'GGA Static'>, 'mp-801332': <CalcType.GGA_U_Static: 'GGA+U Static'>, 'mp-844038': <CalcType.GGA_U_NSCF_Line: 'GGA+U NSCF Line'>, 'mp-844712': <CalcType.GGA_U_NSCF_Line: 'GGA+U NSCF Line'>}"
mp-849423,Li6 Mn3 V3 P6 H6 O30,0.520799999999999,"{'mp-849423': <CalcType.GGA_U_Structure_Optimization: 'GGA+U Structure Optimization'>, 'mp-1350384': <CalcType.GGA_U_Static: 'GGA+U Static'>, 'mp-1876666': <CalcType.GGA_U_Static: 'GGA+U Static'>}"
mp-849682,Li6 Mn3 V3 P6 H6 O30,0.0,"{'mp-857895': <CalcType.GGA_U_NSCF_Line: 'GGA+U NSCF Line'>, 'mp-849682': <CalcType.GGA_U_Structure_Optimization: 'GGA+U Structure Optimization'>, 'mp-856696': <CalcType.GGA_U_Static: 'GGA+U Static'>, 'mp-1351205': <CalcType.GGA_U_Static: 'GGA+U Static'>, 'mp-858347': <CalcType.GGA_U_NSCF_Line: 'GGA+U NSCF Line'>, 'mp-1883685': <CalcType.GGA_U_Static: 'GGA+U Static'>}"
mp-802313,Li1 V1 Fe1 P2 H2 O10,0.0,"{'mp-802313': <CalcType.GGA_U_Static: 'GGA+U Static'>, 'mp-844159': <CalcType.GGA_U_NSCF_Line: 'GGA+U NSCF Line'>, 'mp-844766': <CalcType.GGA_U_NSCF_Line: 'GGA+U NSCF Line'>}"
mp-849523,Li6 Mn3 V3 P6 H6 O30,0.0,"{'mp-856144': <CalcType.GGA_U_Static: 'GGA+U Static'>, 'mp-849523': <CalcType.GGA_U_Structure_Optimization: 'GGA+U Structure Optimization'>, 'mp-856908': <CalcType.GGA_U_NSCF_Line: 'GGA+U NSCF Line'>, 'mp-1349622': <CalcType.GGA_U_Static: 'GGA+U Static'>, 'mp-1883867': <CalcType.GGA_U_Static: 'GGA+U Static'>}"
mp-802127,Li1 Mn1 V1 P2 H2 O10,0.0,"{'mp-802127': <CalcType.GGA_U_Static: 'GGA+U Static'>, 'mp-844113': <CalcType.GGA_U_NSCF_Line: 'GGA+U NSCF Line'>, 'mp-844768': <CalcType.GGA_U_NSCF_Line: 'GGA+U NSCF Line'>}"
mp-776591,Li6 Mn3 V3 P6 H6 O30,0.5648000000000001,"{'mp-776798': <CalcType.GGA_U_Structure_Optimization: 'GGA+U Structure Optimization'>, 'mp-815024': <CalcType.GGA_U_NSCF_Line: 'GGA+U NSCF Line'>, 'mp-805874': <CalcType.GGA_U_Static: 'GGA+U Static'>, 'mp-776591': <CalcType.GGA_Structure_Optimization: 'GGA Structure Optimization'>, 'mp-1352776': <CalcType.GGA_U_Static: 'GGA+U Static'>, 'mp-815779': <CalcType.GGA_U_NSCF_Line: 'GGA+U NSCF Line'>, 'mp-1935221': <CalcType.GGA_U_Static: 'GGA+U Static'>}"
mp-802414,Li3 V1 Cr1 P2 H2 O10,0.0,"{'mp-802414': <CalcType.GGA_U_Static: 'GGA+U Static'>, 'mp-844162': <CalcType.GGA_U_NSCF_Line: 'GGA+U NSCF Line'>, 'mp-844769': <CalcType.GGA_U_NSCF_Line: 'GGA+U NSCF Line'>}"