Material ID,Composition,Band Gap,Calc Types
mp-2712678,Na6 Ca3 Si6 Ge9 S12 O72,0.0,{'mp-2712678': <CalcType.GGA_Structure_Optimization: 'GGA Structure Optimization'>}
mp-2712681,Na9 Al6 Zn6 P3 S15 O72,4.3545,{'mp-2712681': <CalcType.GGA_Structure_Optimization: 'GGA Structure Optimization'>}
mp-2712617,Na18 Mg9 Sn3 P12 S6 O72,2.846199999999999,{'mp-2712617': <CalcType.GGA_Structure_Optimization: 'GGA Structure Optimization'>}
mp-2712628,Na18 Mg9 Zr3 Si6 S12 O72,2.373,{'mp-2712628': <CalcType.GGA_Structure_Optimization: 'GGA Structure Optimization'>}
mp-2712649,Na6 Ta3 In9 P12 S6 O72,1.8980000000000001,{'mp-2712649': <CalcType.GGA_Structure_Optimization: 'GGA Structure Optimization'>}
mp-2712680,Na6 Ca3 Ti9 Si6 S12 O72,1.356899999999999,{'mp-2712680': <CalcType.GGA_Structure_Optimization: 'GGA Structure Optimization'>}
mp-2712684,Na6 Ti9 Zn3 Si6 S12 O72,1.1356,{'mp-2712684': <CalcType.GGA_Structure_Optimization: 'GGA Structure Optimization'>}
mp-2712689,Na6 Y9 Ta3 Si6 S12 O72,2.500099999999999,{'mp-2712689': <CalcType.GGA_Structure_Optimization: 'GGA Structure Optimization'>}
mp-2712695,Na18 Ca9 Sn3 P12 S6 O72,2.3089,{'mp-2712695': <CalcType.GGA_Structure_Optimization: 'GGA Structure Optimization'>}
mp-2712701,Na9 Hf3 Zn9 P3 S15 O72,3.928999999999999,{'mp-2712701': <CalcType.GGA_Structure_Optimization: 'GGA Structure Optimization'>}
mp-2712546,Na6 Hf9 Zn3 P12 S6 O72,4.0169,{'mp-2712546': <CalcType.GGA_Structure_Optimization: 'GGA Structure Optimization'>}
mp-2712574,Na9 Mg9 Sn3 P3 S15 O72,2.3227,{'mp-2712574': <CalcType.GGA_Structure_Optimization: 'GGA Structure Optimization'>}
mp-2712579,Na18 Mg9 Si6 Sn3 S12 O72,1.908799999999999,{'mp-2712579': <CalcType.GGA_Structure_Optimization: 'GGA Structure Optimization'>}
mp-2712654,Na18 Ca9 Zr3 P12 S6 O72,3.8268999999999993,{'mp-2712654': <CalcType.GGA_Structure_Optimization: 'GGA Structure Optimization'>}
mp-2712659,Na18 Ca9 Ti3 Si6 S12 O72,1.0678,{'mp-2712659': <CalcType.GGA_Structure_Optimization: 'GGA Structure Optimization'>}
mp-2712668,Na18 Hf3 Zn9 P12 S6 O72,4.043500000000001,{'mp-2712668': <CalcType.GGA_Structure_Optimization: 'GGA Structure Optimization'>}
mp-2712696,Na9 Ti3 Zn9 P3 S15 O72,2.0644,{'mp-2712696': <CalcType.GGA_Structure_Optimization: 'GGA Structure Optimization'>}
mp-2712703,Na6 Ca3 Zr9 P12 S6 O72,3.0657,{'mp-2712703': <CalcType.GGA_Structure_Optimization: 'GGA Structure Optimization'>}
mp-2712706,Na18 Ca9 Ge3 P12 S6 O72,1.9217,{'mp-2712706': <CalcType.GGA_Structure_Optimization: 'GGA Structure Optimization'>}
mp-2712598,Na6 Y9 Ta3 P12 S6 O72,2.9861,{'mp-2712598': <CalcType.GGA_Structure_Optimization: 'GGA Structure Optimization'>}
mp-2712603,Na6 Zn3 Si6 Ge9 S12 O72,0.6088,{'mp-2712603': <CalcType.GGA_Structure_Optimization: 'GGA Structure Optimization'>}
mp-2712734,Na9 La6 Mg6 P3 S15 O72,4.3003,{'mp-2712734': <CalcType.GGA_Structure_Optimization: 'GGA Structure Optimization'>}
mp-2712770,Na9 Ca6 Ga6 P3 S15 O72,3.0541,{'mp-2712770': <CalcType.GGA_Structure_Optimization: 'GGA Structure Optimization'>}
mp-2712805,Na18 Zn9 Sn3 P12 S6 O72,2.7135,{'mp-2712805': <CalcType.GGA_Structure_Optimization: 'GGA Structure Optimization'>}
mp-2712732,Na18 Hf3 Mg9 Si6 S12 O72,3.0787,{'mp-2712732': <CalcType.GGA_Structure_Optimization: 'GGA Structure Optimization'>}
mp-2712761,Na6 Y9 Nb3 Si6 S12 O72,1.4457,{'mp-2712761': <CalcType.GGA_Structure_Optimization: 'GGA Structure Optimization'>}
mp-2712762,Na6 Ca3 Ge9 P12 S6 O72,1.1632,{'mp-2712762': <CalcType.GGA_Structure_Optimization: 'GGA Structure Optimization'>}
mp-2712793,Na18 Mg9 Ge3 P12 S6 O72,2.3388,{'mp-2712793': <CalcType.GGA_Structure_Optimization: 'GGA Structure Optimization'>}
mp-2712815,Na6 Zn3 Si6 Sn9 S12 O72,0.6362000000000001,{'mp-2712815': <CalcType.GGA_Structure_Optimization: 'GGA Structure Optimization'>}
mp-2712723,Na9 Ca9 Sn3 P3 S15 O72,1.8127,{'mp-2712723': <CalcType.GGA_Structure_Optimization: 'GGA Structure Optimization'>}
mp-2712748,Na6 Ti9 Zn3 P12 S6 O72,1.8231000000000002,{'mp-2712748': <CalcType.GGA_Structure_Optimization: 'GGA Structure Optimization'>}
mp-2712753,Na6 Mg3 Ti9 P12 S6 O72,1.8607,{'mp-2712753': <CalcType.GGA_Structure_Optimization: 'GGA Structure Optimization'>}
mp-2712779,Na9 Mg6 In6 P3 S15 O72,1.4211,{'mp-2712779': <CalcType.GGA_Structure_Optimization: 'GGA Structure Optimization'>}
mp-2712791,Na18 Ti3 Zn9 Si6 S12 O72,1.2711000000000001,{'mp-2712791': <CalcType.GGA_Structure_Optimization: 'GGA Structure Optimization'>}
mp-2712797,Na6 Mg3 Si6 Ge9 S12 O72,0.706199999999999,{'mp-2712797': <CalcType.GGA_Structure_Optimization: 'GGA Structure Optimization'>}
mp-2712798,Na6 Ca3 Hf9 Si6 S12 O72,2.8086,{'mp-2712798': <CalcType.GGA_Structure_Optimization: 'GGA Structure Optimization'>}
mp-2712714,Na6 Nb3 Al9 Si6 S12 O72,1.427299999999999,{'mp-2712714': <CalcType.GGA_Structure_Optimization: 'GGA Structure Optimization'>}
mp-2712718,Na6 Ca3 Hf9 P12 S6 O72,3.8407,{'mp-2712718': <CalcType.GGA_Structure_Optimization: 'GGA Structure Optimization'>}
mp-2712728,Na9 Ca6 In6 P3 S15 O72,2.9575,{'mp-2712728': <CalcType.GGA_Structure_Optimization: 'GGA Structure Optimization'>}
mp-2712733,Na6 Ta3 Al9 Si6 S12 O72,2.2805,{'mp-2712733': <CalcType.GGA_Structure_Optimization: 'GGA Structure Optimization'>}
mp-2712740,Na18 Hf3 Zn9 Si6 S12 O72,3.04,{'mp-2712740': <CalcType.GGA_Structure_Optimization: 'GGA Structure Optimization'>}
mp-2712756,Na6 Nb3 In9 P12 S6 O72,2.0776,{'mp-2712756': <CalcType.GGA_Structure_Optimization: 'GGA Structure Optimization'>}
mp-2712735,Na18 Ca9 Hf3 Si6 S12 O72,3.1606,{'mp-2712735': <CalcType.GGA_Structure_Optimization: 'GGA Structure Optimization'>}
mp-2712789,Na18 Zr3 Zn9 Si6 S12 O72,2.6644,{'mp-2712789': <CalcType.GGA_Structure_Optimization: 'GGA Structure Optimization'>}
mp-2712813,Na18 Ti3 Zn9 P12 S6 O72,2.229899999999999,{'mp-2712813': <CalcType.GGA_Structure_Optimization: 'GGA Structure Optimization'>}
mp-2712780,Na6 Nb3 Al9 P12 S6 O72,2.0691,{'mp-2712780': <CalcType.GGA_Structure_Optimization: 'GGA Structure Optimization'>}
mp-2712795,Na18 Ca9 Si6 Sn3 S12 O72,1.6538,{'mp-2712795': <CalcType.GGA_Structure_Optimization: 'GGA Structure Optimization'>}
mp-2712803,Na18 Ca9 Zr3 Si6 S12 O72,2.333,{'mp-2712803': <CalcType.GGA_Structure_Optimization: 'GGA Structure Optimization'>}
mp-2712725,Na6 Nb3 In9 Si6 S12 O72,0.9225999999999991,{'mp-2712725': <CalcType.GGA_Structure_Optimization: 'GGA Structure Optimization'>}
mp-2712738,Na6 Sc9 Ta3 P12 S6 O72,2.9951,{'mp-2712738': <CalcType.GGA_Structure_Optimization: 'GGA Structure Optimization'>}
mp-2712767,Na6 Y9 Nb3 P12 S6 O72,2.0343,{'mp-2712767': <CalcType.GGA_Structure_Optimization: 'GGA Structure Optimization'>}
mp-2712786,Na18 Mg9 Si6 Ge3 S12 O72,1.7103000000000002,{'mp-2712786': <CalcType.GGA_Structure_Optimization: 'GGA Structure Optimization'>}
mp-2712724,Na6 Hf9 Mg3 Si6 S12 O72,2.986899999999999,{'mp-2712724': <CalcType.GGA_Structure_Optimization: 'GGA Structure Optimization'>}
mp-2712809,Na6 Nb3 Ga9 P12 S6 O72,2.0211,{'mp-2712809': <CalcType.GGA_Structure_Optimization: 'GGA Structure Optimization'>}
mp-2712810,Na18 Zr3 Zn9 P12 S6 O72,3.897199999999999,{'mp-2712810': <CalcType.GGA_Structure_Optimization: 'GGA Structure Optimization'>}
mp-2712840,Na9 La6 Nb6 Si3 P15 O72,2.090999999999999,{'mp-2712840': <CalcType.GGA_Structure_Optimization: 'GGA Structure Optimization'>}
mp-2712862,Na21 Ca6 Al6 P15 S3 O72,4.5863,{'mp-2712862': <CalcType.GGA_Structure_Optimization: 'GGA Structure Optimization'>}
mp-2712863,Na9 Ta9 Ga3 Si9 P9 O72,3.1069,{'mp-2712863': <CalcType.GGA_Structure_Optimization: 'GGA Structure Optimization'>}
mp-2712890,Na9 Y6 Nb6 Si3 P15 O72,2.2235,{'mp-2712890': <CalcType.GGA_Structure_Optimization: 'GGA Structure Optimization'>}
mp-2712919,Na9 Ta6 Al6 Si3 P15 O72,3.285699999999999,{'mp-2712919': <CalcType.GGA_Structure_Optimization: 'GGA Structure Optimization'>}
mp-2712882,Na9 Ta6 Si9 Ge6 P9 O72,3.4389,{'mp-2712882': <CalcType.GGA_Structure_Optimization: 'GGA Structure Optimization'>}
mp-2712906,Na9 La3 Ta9 Si9 P9 O72,2.9848,{'mp-2712906': <CalcType.GGA_Structure_Optimization: 'GGA Structure Optimization'>}
mp-2712843,Na9 Nb6 Si9 Ge6 P9 O72,2.7674000000000003,{'mp-2712843': <CalcType.GGA_Structure_Optimization: 'GGA Structure Optimization'>}
mp-2712855,Na21 Hf3 Mg9 P15 S3 O72,4.131600000000001,{'mp-2712855': <CalcType.GGA_Structure_Optimization: 'GGA Structure Optimization'>}
mp-2712959,Na9 Nb9 Ga3 Si9 P9 O72,2.3784,{'mp-2712959': <CalcType.GGA_Structure_Optimization: 'GGA Structure Optimization'>}
mp-2712971,Na9 Nb9 Al3 Si9 P9 O72,2.4141,{'mp-2712971': <CalcType.GGA_Structure_Optimization: 'GGA Structure Optimization'>}
mp-2712921,Na9 Y3 Nb9 Si9 P9 O72,2.2787,{'mp-2712921': <CalcType.GGA_Structure_Optimization: 'GGA Structure Optimization'>}
mp-2712937,Na9 Ta6 Ga6 Si3 P15 O72,3.2369,{'mp-2712937': <CalcType.GGA_Structure_Optimization: 'GGA Structure Optimization'>}
mp-2712994,Na9 Nb6 Ga6 Si3 P15 O72,2.4617,{'mp-2712994': <CalcType.GGA_Structure_Optimization: 'GGA Structure Optimization'>}
mp-2712955,Na9 Nb6 Al6 Si3 P15 O72,2.4755000000000003,{'mp-2712955': <CalcType.GGA_Structure_Optimization: 'GGA Structure Optimization'>}
mp-2712964,Na9 Si3 Sn6 Ge6 P15 O72,2.9593,{'mp-2712964': <CalcType.GGA_Structure_Optimization: 'GGA Structure Optimization'>}
mp-2712929,Na9 La3 Nb9 Si9 P9 O72,2.2383,{'mp-2712929': <CalcType.GGA_Structure_Optimization: 'GGA Structure Optimization'>}
mp-2712945,Na9 Sc3 Ta9 Si9 P9 O72,3.0753,{'mp-2712945': <CalcType.GGA_Structure_Optimization: 'GGA Structure Optimization'>}
mp-2712985,Na9 Ti6 Si3 Sn6 P15 O72,2.5118,{'mp-2712985': <CalcType.GGA_Structure_Optimization: 'GGA Structure Optimization'>}
mp-2712819,Na6 Ca3 Si6 Sn9 S12 O72,0.345699999999999,{'mp-2712819': <CalcType.GGA_Structure_Optimization: 'GGA Structure Optimization'>}
mp-2712905,Na9 Nb6 In6 Si3 P15 O72,2.1687,{'mp-2712905': <CalcType.GGA_Structure_Optimization: 'GGA Structure Optimization'>}
mp-2712967,Na9 Y3 Ta9 Si9 P9 O72,3.0157,{'mp-2712967': <CalcType.GGA_Structure_Optimization: 'GGA Structure Optimization'>}
mp-2712871,Na9 Nb9 In3 Si9 P9 O72,2.3436,{'mp-2712871': <CalcType.GGA_Structure_Optimization: 'GGA Structure Optimization'>}
mp-2712996,Na9 Nb6 Si9 Sn6 P9 O72,2.8802000000000003,{'mp-2712996': <CalcType.GGA_Structure_Optimization: 'GGA Structure Optimization'>}
mp-2712910,Na9 La6 Ta6 Si3 P15 O72,2.723,{'mp-2712910': <CalcType.GGA_Structure_Optimization: 'GGA Structure Optimization'>}
mp-2712954,Na9 Ta6 Si9 Sn6 P9 O72,3.507899999999999,{'mp-2712954': <CalcType.GGA_Structure_Optimization: 'GGA Structure Optimization'>}
mp-2712969,Na9 Hf6 Ta6 Si9 P9 O72,3.7595,{'mp-2712969': <CalcType.GGA_Structure_Optimization: 'GGA Structure Optimization'>}
mp-2712842,Na9 Ta9 Al3 Si9 P9 O72,3.147799999999999,{'mp-2712842': <CalcType.GGA_Structure_Optimization: 'GGA Structure Optimization'>}
mp-2712834,Na9 Zr6 Ta6 Si9 P9 O72,3.8162000000000003,{'mp-2712834': <CalcType.GGA_Structure_Optimization: 'GGA Structure Optimization'>}
mp-2712998,Na9 Zr6 Si3 Sn6 P15 O72,3.5449,{'mp-2712998': <CalcType.GGA_Structure_Optimization: 'GGA Structure Optimization'>}
mp-2713015,Na9 Hf6 Si3 Ge6 P15 O72,3.1494,{'mp-2713015': <CalcType.GGA_Structure_Optimization: 'GGA Structure Optimization'>}
mp-2713024,Na9 Hf6 Ti6 Si3 P15 O72,2.5617,{'mp-2713024': <CalcType.GGA_Structure_Optimization: 'GGA Structure Optimization'>}
mp-2713058,Na9 Sc6 Ta6 Si3 P15 O72,3.1042,{'mp-2713058': <CalcType.GGA_Structure_Optimization: 'GGA Structure Optimization'>}
mp-2713060,Na9 Zr6 Ti6 Si3 P15 O72,2.5574,{'mp-2713060': <CalcType.GGA_Structure_Optimization: 'GGA Structure Optimization'>}
mp-2713016,Na9 Ta9 In3 Si9 P9 O72,3.014799999999999,{'mp-2713016': <CalcType.GGA_Structure_Optimization: 'GGA Structure Optimization'>}
mp-2713029,Na9 Zr6 Si3 Ge6 P15 O72,3.4082,{'mp-2713029': <CalcType.GGA_Structure_Optimization: 'GGA Structure Optimization'>}
mp-2713044,Na9 Y6 Ta6 Si3 P15 O72,2.9494,{'mp-2713044': <CalcType.GGA_Structure_Optimization: 'GGA Structure Optimization'>}
mp-2713057,Na9 Sc6 Nb6 Si3 P15 O72,2.3308,{'mp-2713057': <CalcType.GGA_Structure_Optimization: 'GGA Structure Optimization'>}
mp-2713061,Na12 Nb9 In3 Si12 P6 O72,2.4156,{'mp-2713061': <CalcType.GGA_Structure_Optimization: 'GGA Structure Optimization'>}
mp-2713089,Na9 Ta6 Ti6 Si9 P9 O72,2.6811,{'mp-2713089': <CalcType.GGA_Structure_Optimization: 'GGA Structure Optimization'>}
mp-2713030,Na21 Mg9 Ti3 P15 S3 O72,2.083199999999999,{'mp-2713030': <CalcType.GGA_Structure_Optimization: 'GGA Structure Optimization'>}
mp-2713063,Na9 Hf6 Zr6 Si3 P15 O72,4.2087,{'mp-2713063': <CalcType.GGA_Structure_Optimization: 'GGA Structure Optimization'>}
mp-2713087,Na9 Hf6 Si3 Sn6 P15 O72,3.3073,{'mp-2713087': <CalcType.GGA_Structure_Optimization: 'GGA Structure Optimization'>}
mp-2713098,Na9 Zr6 Nb6 Si9 P9 O72,2.9288,{'mp-2713098': <CalcType.GGA_Structure_Optimization: 'GGA Structure Optimization'>}
mp-2712999,Na9 Ti6 Nb6 Si9 P9 O72,2.6679,{'mp-2712999': <CalcType.GGA_Structure_Optimization: 'GGA Structure Optimization'>}
mp-2713007,Na9 Hf6 Nb6 Si9 P9 O72,2.8493,{'mp-2713007': <CalcType.GGA_Structure_Optimization: 'GGA Structure Optimization'>}
mp-2713093,Na9 Ta6 In6 Si3 P15 O72,3.0201,{'mp-2713093': <CalcType.GGA_Structure_Optimization: 'GGA Structure Optimization'>}
mp-2713078,Na9 Sc3 Nb9 Si9 P9 O72,2.279099999999999,{'mp-2713078': <CalcType.GGA_Structure_Optimization: 'GGA Structure Optimization'>}
mp-2713112,Na9 Ti6 Si3 Ge6 P15 O72,2.531099999999999,{'mp-2713112': <CalcType.GGA_Structure_Optimization: 'GGA Structure Optimization'>}
mp-2713143,Na15 La9 Ti3 Si9 S9 O72,1.7610000000000001,{'mp-2713143': <CalcType.GGA_Structure_Optimization: 'GGA Structure Optimization'>}
mp-2713154,Na15 In9 Si9 Ge3 S9 O72,1.8462,{'mp-2713154': <CalcType.GGA_Structure_Optimization: 'GGA Structure Optimization'>}
mp-2713187,Na12 Mg9 Sn3 P6 S12 O72,2.2344,{'mp-2713187': <CalcType.GGA_Structure_Optimization: 'GGA Structure Optimization'>}
mp-2713139,Na12 Hf3 Mg9 Si3 S15 O72,3.7749,{'mp-2713139': <CalcType.GGA_Structure_Optimization: 'GGA Structure Optimization'>}
mp-2713151,Na12 Ti3 Zn9 P6 S12 O72,1.699,{'mp-2713151': <CalcType.GGA_Structure_Optimization: 'GGA Structure Optimization'>}
mp-2713167,Na12 Mg6 Al6 Si3 S15 O72,3.556499999999999,{'mp-2713167': <CalcType.GGA_Structure_Optimization: 'GGA Structure Optimization'>}
mp-2713228,Na12 Ca3 Ti9 Si9 S9 O72,1.0988,{'mp-2713228': <CalcType.GGA_Structure_Optimization: 'GGA Structure Optimization'>}
mp-2713130,Na12 Ca6 In6 Si3 S15 O72,1.877199999999999,{'mp-2713130': <CalcType.GGA_Structure_Optimization: 'GGA Structure Optimization'>}
mp-2713173,Na12 Mg9 Ge3 P6 S12 O72,1.6682000000000001,{'mp-2713173': <CalcType.GGA_Structure_Optimization: 'GGA Structure Optimization'>}
mp-2713219,Na12 Ca3 Hf9 Si9 S9 O72,2.987599999999999,{'mp-2713219': <CalcType.GGA_Structure_Optimization: 'GGA Structure Optimization'>}
mp-2713236,Na12 Y6 Zr6 Si9 S9 O72,2.7178,{'mp-2713236': <CalcType.GGA_Structure_Optimization: 'GGA Structure Optimization'>}
mp-2713134,Na12 Sc6 Zn6 Si3 S15 O72,3.7321,{'mp-2713134': <CalcType.GGA_Structure_Optimization: 'GGA Structure Optimization'>}
mp-2713145,Na12 Ca9 Si3 Ge3 S15 O72,1.3732,{'mp-2713145': <CalcType.GGA_Structure_Optimization: 'GGA Structure Optimization'>}
mp-2713176,Na15 La9 Hf3 Si9 S9 O72,3.5504,{'mp-2713176': <CalcType.GGA_Structure_Optimization: 'GGA Structure Optimization'>}
mp-2713182,Na6 Hf6 Zr6 Si9 S9 O72,3.2172,{'mp-2713182': <CalcType.GGA_Structure_Optimization: 'GGA Structure Optimization'>}
mp-2713200,Na12 Al6 Zn6 Si3 S15 O72,3.6881999999999993,{'mp-2713200': <CalcType.GGA_Structure_Optimization: 'GGA Structure Optimization'>}
mp-2713234,Na12 Sc9 Ta3 Si9 S9 O72,3.1893000000000002,{'mp-2713234': <CalcType.GGA_Structure_Optimization: 'GGA Structure Optimization'>}
mp-2713126,Na12 Ca9 Zr3 P6 S12 O72,3.073099999999999,{'mp-2713126': <CalcType.GGA_Structure_Optimization: 'GGA Structure Optimization'>}
mp-2713133,Na12 Mg9 Si3 Ge3 S15 O72,1.5028000000000001,{'mp-2713133': <CalcType.GGA_Structure_Optimization: 'GGA Structure Optimization'>}
mp-2713136,Na12 Mg9 Ti3 P6 S12 O72,1.6748,{'mp-2713136': <CalcType.GGA_Structure_Optimization: 'GGA Structure Optimization'>}
mp-2713161,Na12 Zr3 Zn9 Si3 S15 O72,3.2895,{'mp-2713161': <CalcType.GGA_Structure_Optimization: 'GGA Structure Optimization'>}
mp-2713166,Na12 Zn9 Si3 Sn3 S15 O72,2.0022,{'mp-2713166': <CalcType.GGA_Structure_Optimization: 'GGA Structure Optimization'>}
mp-2713171,Na12 Mg6 Sc6 Si3 S15 O72,3.1141,{'mp-2713171': <CalcType.GGA_Structure_Optimization: 'GGA Structure Optimization'>}
mp-2713192,Na12 Ca6 Y6 Si3 S15 O72,3.542399999999999,{'mp-2713192': <CalcType.GGA_Structure_Optimization: 'GGA Structure Optimization'>}
mp-2713194,Na12 Hf3 Zn9 P6 S12 O72,3.6946,{'mp-2713194': <CalcType.GGA_Structure_Optimization: 'GGA Structure Optimization'>}
mp-2713198,Na15 In9 Si9 Sn3 S9 O72,2.107599999999999,{'mp-2713198': <CalcType.GGA_Structure_Optimization: 'GGA Structure Optimization'>}
mp-2713204,Na6 Hf6 Si9 Ge6 S9 O72,2.4177,{'mp-2713204': <CalcType.GGA_Structure_Optimization: 'GGA Structure Optimization'>}
mp-2713170,Na15 Hf3 In9 Si9 S9 O72,0.7071000000000001,{'mp-2713170': <CalcType.GGA_Structure_Optimization: 'GGA Structure Optimization'>}
mp-2713189,Na12 Zn9 Ge3 P6 S12 O72,1.8239,{'mp-2713189': <CalcType.GGA_Structure_Optimization: 'GGA Structure Optimization'>}
mp-2713196,Na6 Hf6 Si9 Sn6 S9 O72,2.0223,{'mp-2713196': <CalcType.GGA_Structure_Optimization: 'GGA Structure Optimization'>}
mp-2713224,Na9 Ca9 Ge3 P3 S15 O72,1.4217,{'mp-2713224': <CalcType.GGA_Structure_Optimization: 'GGA Structure Optimization'>}
mp-2713137,Na12 Zn9 Sn3 P6 S12 O72,2.098099999999999,{'mp-2713137': <CalcType.GGA_Structure_Optimization: 'GGA Structure Optimization'>}
mp-2713162,Na15 Y9 Hf3 Si9 S9 O72,3.5455,{'mp-2713162': <CalcType.GGA_Structure_Optimization: 'GGA Structure Optimization'>}
mp-2713279,Na9 Ca6 Sc6 P3 S15 O72,3.9138,{'mp-2713279': <CalcType.GGA_Structure_Optimization: 'GGA Structure Optimization'>}
mp-2713321,Na12 La6 Si9 Ge6 S9 O72,0.0,{'mp-2713321': <CalcType.GGA_Structure_Optimization: 'GGA Structure Optimization'>}
mp-2713347,Na12 Ca9 Hf3 P6 S12 O72,4.0095,{'mp-2713347': <CalcType.GGA_Structure_Optimization: 'GGA Structure Optimization'>}
mp-2713348,Na15 Ga9 Si9 Sn3 S9 O72,2.519199999999998,{'mp-2713348': <CalcType.GGA_Structure_Optimization: 'GGA Structure Optimization'>}
mp-2713244,Na15 Mg6 Zn6 P3 S15 O72,4.2441,{'mp-2713244': <CalcType.GGA_Structure_Optimization: 'GGA Structure Optimization'>}
mp-2713272,Na12 Zr6 Ga6 Si9 S9 O72,2.8243,{'mp-2713272': <CalcType.GGA_Structure_Optimization: 'GGA Structure Optimization'>}
mp-2713322,Na12 Ti9 Zn3 Si9 S9 O72,1.134399999999999,{'mp-2713322': <CalcType.GGA_Structure_Optimization: 'GGA Structure Optimization'>}
mp-2713339,Na12 Ca9 Si3 Sn3 S15 O72,1.5037,{'mp-2713339': <CalcType.GGA_Structure_Optimization: 'GGA Structure Optimization'>}
mp-2713346,Na12 Mg6 Ga6 Si3 S15 O72,2.3016,{'mp-2713346': <CalcType.GGA_Structure_Optimization: 'GGA Structure Optimization'>}
mp-2713364,Na12 Mg9 Si3 Sn3 S15 O72,1.8956,{'mp-2713364': <CalcType.GGA_Structure_Optimization: 'GGA Structure Optimization'>}
mp-2713369,Na12 La6 Zn6 Si3 S15 O72,3.4682999999999993,{'mp-2713369': <CalcType.GGA_Structure_Optimization: 'GGA Structure Optimization'>}
mp-2713376,Na12 Ca9 Zr3 Si3 S15 O72,3.004099999999999,{'mp-2713376': <CalcType.GGA_Structure_Optimization: 'GGA Structure Optimization'>}
mp-2713410,Na6 Y6 Ta6 Si9 S9 O72,1.3065,{'mp-2713410': <CalcType.GGA_Structure_Optimization: 'GGA Structure Optimization'>}
mp-2713243,Na9 La6 Zn6 P3 S15 O72,4.0585,{'mp-2713243': <CalcType.GGA_Structure_Optimization: 'GGA Structure Optimization'>}
mp-2713316,Na12 Nb6 Zn6 Si9 S9 O72,0.43419999999999903,{'mp-2713316': <CalcType.GGA_Structure_Optimization: 'GGA Structure Optimization'>}
mp-2713318,Na12 Al6 Si9 Ge6 S9 O72,1.0755,{'mp-2713318': <CalcType.GGA_Structure_Optimization: 'GGA Structure Optimization'>}
mp-2713353,Na12 Hf3 Zn9 Si3 S15 O72,3.620399999999999,{'mp-2713353': <CalcType.GGA_Structure_Optimization: 'GGA Structure Optimization'>}