Material ID,Composition,Band Gap,Calc Types
mp-1224735,K12 Ag4 As8 C1 Se20 O1,0.6591,"{'mp-1224735': <CalcType.GGA_Structure_Optimization: 'GGA Structure Optimization'>, 'mp-1363535': <CalcType.GGA_Static: 'GGA Static'>}"
mp-1224487,K2 Fe2 Co2 C12 N12 O1,0.0,"{'mp-1224487': <CalcType.GGA_U_Structure_Optimization: 'GGA+U Structure Optimization'>, 'mp-1357008': <CalcType.GGA_U_Static: 'GGA+U Static'>, 'mp-1679850': <CalcType.GGA_U_NSCF_Uniform: 'GGA+U NSCF Uniform'>, 'mp-1885536': <CalcType.GGA_U_Static: 'GGA+U Static'>}"
mp-1227863,Ba1 Sm5 Al3 Si9 N20 O1,2.8745000000000003,"{'mp-1227863': <CalcType.GGA_Structure_Optimization: 'GGA Structure Optimization'>, 'mp-1358680': <CalcType.GGA_Static: 'GGA Static'>, 'mp-1823991': <CalcType.GGA_Static: 'GGA Static'>}"
mp-684810,Ba1 Sm5 Al3 Si9 N20 O1,2.765799999999999,"{'mp-708938': <CalcType.GGA_NSCF_Line: 'GGA NSCF Line'>, 'mp-716291': <CalcType.GGA_NSCF_Line: 'GGA NSCF Line'>, 'mp-684810': <CalcType.GGA_Structure_Optimization: 'GGA Structure Optimization'>, 'mp-690420': <CalcType.GGA_Static: 'GGA Static'>, 'mp-1248677': <CalcType.GGA_Structure_Optimization: 'GGA Structure Optimization'>, 'mp-1250000': <CalcType.GGA_NMR_Nuclear_Shielding: 'GGA NMR Nuclear Shielding'>, 'mp-1251023': <CalcType.GGA_NMR_Electric_Field_Gradient: 'GGA NMR Electric Field Gradient'>, 'mp-1255532': <CalcType.GGA_NMR_Nuclear_Shielding: 'GGA NMR Nuclear Shielding'>, 'mp-1257786': <CalcType.GGA_NMR_Electric_Field_Gradient: 'GGA NMR Electric Field Gradient'>, 'mp-1264206': <CalcType.GGA_Structure_Optimization: 'GGA Structure Optimization'>, 'mp-1355718': <CalcType.GGA_Static: 'GGA Static'>, 'mp-1823263': <CalcType.GGA_Static: 'GGA Static'>}"
mp-1195330,K2 B22 H26 C4 N2 O2,4.8833,"{'mp-1195330': <CalcType.GGA_Structure_Optimization: 'GGA Structure Optimization'>, 'mp-1889351': <CalcType.GGA_Static: 'GGA Static'>, 'mp-1984648': <CalcType.GGA_Static: 'GGA Static'>}"
mp-1179213,Te4 H60 C20 N4 O4 F24,3.5886,"{'mp-1179213': <CalcType.GGA_Structure_Optimization: 'GGA Structure Optimization'>, 'mp-1334089': <CalcType.GGA_Static: 'GGA Static'>, 'mp-1851269': <CalcType.GGA_Static: 'GGA Static'>}"
mp-1179533,Te4 H60 C20 N4 O4 F24,2.1588,"{'mp-1179533': <CalcType.GGA_Structure_Optimization: 'GGA Structure Optimization'>, 'mp-1179569': <CalcType.GGA_Structure_Optimization: 'GGA Structure Optimization'>, 'mp-1335365': <CalcType.GGA_Static: 'GGA Static'>}"
mp-1196440,Zn4 Si16 H140 C52 Cl4 O4,3.7616,{'mp-1196440': <CalcType.GGA_Structure_Optimization: 'GGA Structure Optimization'>}
mp-1198552,Ta8 H144 C48 N24 Cl8 O4,2.6784,"{'mp-1198552': <CalcType.GGA_Structure_Optimization: 'GGA Structure Optimization'>, 'mp-1984223': <CalcType.GGA_Static: 'GGA Static'>}"
mp-1198829,B4 H28 C8 N16 O4 F16,5.0921,"{'mp-1198829': <CalcType.GGA_Structure_Optimization: 'GGA Structure Optimization'>, 'mp-1884024': <CalcType.GGA_Static: 'GGA Static'>, 'mp-1981810': <CalcType.GGA_Static: 'GGA Static'>}"
mp-1199579,Bi4 H56 C16 S32 N20 O4,2.8482000000000003,"{'mp-1199579': <CalcType.GGA_Structure_Optimization: 'GGA Structure Optimization'>, 'mp-1338270': <CalcType.GGA_Static: 'GGA Static'>}"
mp-1203018,Sr8 Li4 Ta4 Al4 N16 O2,2.5814,"{'mp-1203018': <CalcType.GGA_Structure_Optimization: 'GGA Structure Optimization'>, 'mp-1404548': <CalcType.GGA_Static: 'GGA Static'>, 'mp-1935723': <CalcType.GGA_Static: 'GGA Static'>}"
mp-1204475,Rb4 Cu8 H8 C12 N12 O4,2.3302,"{'mp-1204475': <CalcType.GGA_Structure_Optimization: 'GGA Structure Optimization'>, 'mp-1238675': <CalcType.GGA_Structure_Optimization: 'GGA Structure Optimization'>, 'mp-1887064': <CalcType.GGA_Static: 'GGA Static'>, 'mp-1987781': <CalcType.GGA_Static: 'GGA Static'>}"
mp-1212621,H8 C12 N4 Cl4 O4 F16,4.3321,"{'mp-1212621': <CalcType.GGA_Structure_Optimization: 'GGA Structure Optimization'>, 'mp-1238276': <CalcType.GGA_Structure_Optimization: 'GGA Structure Optimization'>, 'mp-1351818': <CalcType.GGA_Static: 'GGA Static'>, 'mp-1684921': <CalcType.GGA_NSCF_Uniform: 'GGA NSCF Uniform'>, 'mp-1890932': <CalcType.GGA_Static: 'GGA Static'>}"
mp-1212156,K4 H12 C4 S4 N8 O4,0.6047,"{'mp-1212156': <CalcType.GGA_Structure_Optimization: 'GGA Structure Optimization'>, 'mp-1400405': <CalcType.GGA_Static: 'GGA Static'>, 'mp-1727015': <CalcType.GGA_NSCF_Uniform: 'GGA NSCF Uniform'>, 'mp-1893698': <CalcType.GGA_Static: 'GGA Static'>}"
mp-1215048,Al4 H40 C12 N24 O4 F20,4.4482,"{'mp-1215048': <CalcType.GGA_Structure_Optimization: 'GGA Structure Optimization'>, 'mp-1865089': <CalcType.GGA_Static: 'GGA Static'>}"
mp-24308,Al4 Si4 H36 C12 Cl8 O4,5.380599999999999,"{'mp-860634': <CalcType.GGA_NSCF_Line: 'GGA NSCF Line'>, 'mp-727797': <CalcType.GGA_Static: 'GGA Static'>, 'mp-24308': <CalcType.GGA_Structure_Optimization: 'GGA Structure Optimization'>, 'mp-1134096': <CalcType.GGA_Structure_Optimization: 'GGA Structure Optimization'>, 'mp-1250706': <CalcType.GGA_NMR_Nuclear_Shielding: 'GGA NMR Nuclear Shielding'>, 'mp-1254748': <CalcType.GGA_NMR_Electric_Field_Gradient: 'GGA NMR Electric Field Gradient'>, 'mp-1256321': <CalcType.GGA_NMR_Electric_Field_Gradient: 'GGA NMR Electric Field Gradient'>, 'mp-1256637': <CalcType.GGA_Structure_Optimization: 'GGA Structure Optimization'>, 'mp-1265596': <CalcType.GGA_Structure_Optimization: 'GGA Structure Optimization'>, 'mp-1265752': <CalcType.GGA_NMR_Nuclear_Shielding: 'GGA NMR Nuclear Shielding'>, 'mp-1353016': <CalcType.GGA_Static: 'GGA Static'>, 'mp-736920': <CalcType.GGA_NSCF_Line: 'GGA NSCF Line'>, 'mp-1684261': <CalcType.GGA_NSCF_Uniform: 'GGA NSCF Uniform'>, 'mp-1851275': <CalcType.GGA_Static: 'GGA Static'>}"
mp-555532,Cs4 B4 C12 N4 O4 F36,3.4772,"{'mp-847954': <CalcType.GGA_NSCF_Line: 'GGA NSCF Line'>, 'mp-723564': <CalcType.GGA_Static: 'GGA Static'>, 'mp-555532': <CalcType.GGA_Structure_Optimization: 'GGA Structure Optimization'>, 'mp-1360349': <CalcType.GGA_Static: 'GGA Static'>, 'mp-746507': <CalcType.GGA_NSCF_Line: 'GGA NSCF Line'>, 'mp-1684560': <CalcType.GGA_NSCF_Uniform: 'GGA NSCF Uniform'>, 'mp-1847805': <CalcType.GGA_Static: 'GGA Static'>}"
mp-554876,As4 C4 S8 N8 O4 F20,2.8314,"{'mp-683729': <CalcType.GGA_Static: 'GGA Static'>, 'mp-845765': <CalcType.GGA_NSCF_Line: 'GGA NSCF Line'>, 'mp-554876': <CalcType.GGA_Structure_Optimization: 'GGA Structure Optimization'>, 'mp-1328955': <CalcType.GGA_Static: 'GGA Static'>, 'mp-795488': <CalcType.GGA_NSCF_Line: 'GGA NSCF Line'>, 'mp-1870298': <CalcType.GGA_Static: 'GGA Static'>}"
mp-556622,Tl16 Os8 C8 Br16 O8 F24,0.756799999999999,"{'mp-722164': <CalcType.GGA_Static: 'GGA Static'>, 'mp-847989': <CalcType.GGA_NSCF_Line: 'GGA NSCF Line'>, 'mp-556622': <CalcType.GGA_Structure_Optimization: 'GGA Structure Optimization'>, 'mp-999661': <CalcType.GGA_NSCF_Line: 'GGA NSCF Line'>, 'mp-1327228': <CalcType.GGA_Static: 'GGA Static'>}"
mp-561214,Sb4 H12 C4 S4 Cl24 O4,2.046,"{'mp-658794': <CalcType.GGA_NSCF_Line: 'GGA NSCF Line'>, 'mp-561214': <CalcType.GGA_Structure_Optimization: 'GGA Structure Optimization'>, 'mp-684282': <CalcType.GGA_NSCF_Line: 'GGA NSCF Line'>, 'mp-655637': <CalcType.GGA_Static: 'GGA Static'>, 'mp-1359992': <CalcType.GGA_Static: 'GGA Static'>, 'mp-1850963': <CalcType.GGA_Static: 'GGA Static'>}"
mp-601902,Tl8 H4 Pt4 C20 N20 O4,3.2618,"{'mp-1332148': <CalcType.GGA_Static: 'GGA Static'>, 'mp-1848385': <CalcType.GGA_Static: 'GGA Static'>, 'mp-601902': <CalcType.GGA_Structure_Optimization: 'GGA Structure Optimization'>, 'mp-657441': <CalcType.GGA_Static: 'GGA Static'>, 'mp-679503': <CalcType.GGA_NSCF_Line: 'GGA NSCF Line'>, 'mp-664492': <CalcType.GGA_NSCF_Line: 'GGA NSCF Line'>}"
mp-605047,P8 H24 C20 N8 Cl16 O4,2.7036,"{'mp-657807': <CalcType.GGA_Static: 'GGA Static'>, 'mp-605047': <CalcType.GGA_Structure_Optimization: 'GGA Structure Optimization'>, 'mp-680644': <CalcType.GGA_NSCF_Line: 'GGA NSCF Line'>, 'mp-665499': <CalcType.GGA_NSCF_Line: 'GGA NSCF Line'>, 'mp-1237664': <CalcType.GGA_Structure_Optimization: 'GGA Structure Optimization'>, 'mp-1326638': <CalcType.GGA_Static: 'GGA Static'>, 'mp-1848756': <CalcType.GGA_Static: 'GGA Static'>}"
mp-697278,Na4 Ca4 Al4 H8 O4 F24,6.7783,"{'mp-697278': <CalcType.GGA_Structure_Optimization: 'GGA Structure Optimization'>, 'mp-726273': <CalcType.GGA_Static: 'GGA Static'>, 'mp-864015': <CalcType.GGA_NSCF_Line: 'GGA NSCF Line'>, 'mp-1335813': <CalcType.GGA_Static: 'GGA Static'>, 'mp-747137': <CalcType.GGA_NSCF_Line: 'GGA NSCF Line'>, 'mp-864359': <CalcType.GGA_NSCF_Line: 'GGA NSCF Line'>, 'mp-1825635': <CalcType.GGA_Static: 'GGA Static'>}"
mp-722501,Sn4 H12 S16 N16 Cl20 O4,1.8465,"{'mp-735178': <CalcType.GGA_Static: 'GGA Static'>, 'mp-848921': <CalcType.GGA_NSCF_Line: 'GGA NSCF Line'>, 'mp-722501': <CalcType.GGA_Structure_Optimization: 'GGA Structure Optimization'>, 'mp-1330153': <CalcType.GGA_Static: 'GGA Static'>, 'mp-745908': <CalcType.GGA_NSCF_Line: 'GGA NSCF Line'>}"
mp-849790,Si4 H84 C24 N8 O4 F20,5.6441,"{'mp-857916': <CalcType.GGA_NSCF_Line: 'GGA NSCF Line'>, 'mp-856986': <CalcType.GGA_Static: 'GGA Static'>, 'mp-849790': <CalcType.GGA_Structure_Optimization: 'GGA Structure Optimization'>, 'mp-1252527': <CalcType.GGA_NMR_Electric_Field_Gradient: 'GGA NMR Electric Field Gradient'>, 'mp-1258242': <CalcType.GGA_NMR_Nuclear_Shielding: 'GGA NMR Nuclear Shielding'>, 'mp-1265847': <CalcType.GGA_Structure_Optimization: 'GGA Structure Optimization'>, 'mp-1338845': <CalcType.GGA_Static: 'GGA Static'>, 'mp-1844875': <CalcType.GGA_Static: 'GGA Static'>}"
mp-1106075,K2 Au2 C4 N4 Cl4 O2,0.0285,"{'mp-1106075': <CalcType.GGA_Structure_Optimization: 'GGA Structure Optimization'>, 'mp-1816301': <CalcType.GGA_Static: 'GGA Static'>, 'mp-1986302': <CalcType.GGA_Static: 'GGA Static'>}"
mp-1195326,H12 C4 S4 N4 O4 F8,4.8222000000000005,"{'mp-1195326': <CalcType.GGA_Structure_Optimization: 'GGA Structure Optimization'>, 'mp-1195673': <CalcType.GGA_Structure_Optimization: 'GGA Structure Optimization'>, 'mp-1398442': <CalcType.GGA_Static: 'GGA Static'>, 'mp-1741964': <CalcType.GGA_NSCF_Uniform: 'GGA NSCF Uniform'>, 'mp-1883581': <CalcType.GGA_Static: 'GGA Static'>}"
mp-1203356,H4 C8 S4 Cl4 O4 F8,3.6948,"{'mp-1203356': <CalcType.GGA_Structure_Optimization: 'GGA Structure Optimization'>, 'mp-1387922': <CalcType.GGA_Static: 'GGA Static'>, 'mp-1730953': <CalcType.GGA_NSCF_Uniform: 'GGA NSCF Uniform'>, 'mp-1880920': <CalcType.GGA_Static: 'GGA Static'>}"
mp-722997,Na4 Ca4 Al4 H8 O4 F24,6.6377,"{'mp-745215': <CalcType.GGA_NSCF_Line: 'GGA NSCF Line'>, 'mp-722997': <CalcType.GGA_Structure_Optimization: 'GGA Structure Optimization'>, 'mp-736250': <CalcType.GGA_Static: 'GGA Static'>, 'mp-1254882': <CalcType.GGA_NMR_Electric_Field_Gradient: 'GGA NMR Electric Field Gradient'>, 'mp-1256622': <CalcType.GGA_NMR_Nuclear_Shielding: 'GGA NMR Nuclear Shielding'>, 'mp-1257761': <CalcType.GGA_NMR_Nuclear_Shielding: 'GGA NMR Nuclear Shielding'>, 'mp-1258612': <CalcType.GGA_NMR_Electric_Field_Gradient: 'GGA NMR Electric Field Gradient'>, 'mp-1264271': <CalcType.GGA_Structure_Optimization: 'GGA Structure Optimization'>, 'mp-1265483': <CalcType.GGA_Structure_Optimization: 'GGA Structure Optimization'>, 'mp-1370374': <CalcType.GGA_Static: 'GGA Static'>, 'mp-1826851': <CalcType.GGA_Static: 'GGA Static'>, 'mp-746976': <CalcType.GGA_NSCF_Line: 'GGA NSCF Line'>}"
mp-1199273,Cs6 B6 H6 C18 O6 F54,5.7833000000000006,"{'mp-1199273': <CalcType.GGA_Structure_Optimization: 'GGA Structure Optimization'>, 'mp-1238089': <CalcType.GGA_Structure_Optimization: 'GGA Structure Optimization'>, 'mp-1363177': <CalcType.GGA_Static: 'GGA Static'>}"
mp-1196083,K4 H8 Au4 C16 N16 O4,4.2733,"{'mp-1196083': <CalcType.GGA_Structure_Optimization: 'GGA Structure Optimization'>, 'mp-1355947': <CalcType.GGA_Static: 'GGA Static'>, 'mp-1920029': <CalcType.GGA_Static: 'GGA Static'>}"
mp-1202331,Mo4 P12 H108 C36 I8 O4,1.144199999999999,"{'mp-1202331': <CalcType.GGA_U_Structure_Optimization: 'GGA+U Structure Optimization'>, 'mp-1984225': <CalcType.GGA_U_Static: 'GGA+U Static'>}"
mp-1105350,H6 C2 S2 N2 O2 F4,4.804600000000001,"{'mp-1105350': <CalcType.GGA_Structure_Optimization: 'GGA Structure Optimization'>, 'mp-1423443': <CalcType.GGA_Static: 'GGA Static'>, 'mp-1709156': <CalcType.GGA_NSCF_Uniform: 'GGA NSCF Uniform'>, 'mp-1809526': <CalcType.GGA_Static: 'GGA Static'>, 'mp-1584035': <CalcType.GGA_NSCF_Line: 'GGA NSCF Line'>, 'mp-2086686': <CalcType.GGA_NSCF_Line: 'GGA NSCF Line'>, 'mp-2599117': <CalcType.GGA_NSCF_Line: 'GGA NSCF Line'>}"
mp-1182270,Cs4 Hg2 C4 S2 I8 O2,1.3411,"{'mp-1182270': <CalcType.GGA_Structure_Optimization: 'GGA Structure Optimization'>, 'mp-1878168': <CalcType.GGA_Static: 'GGA Static'>}"
mp-1182914,Al2 H28 C8 N2 O2 F8,0.043499999999999005,"{'mp-1182914': <CalcType.GGA_Structure_Optimization: 'GGA Structure Optimization'>, 'mp-1349463': <CalcType.GGA_Static: 'GGA Static'>, 'mp-1680993': <CalcType.GGA_NSCF_Uniform: 'GGA NSCF Uniform'>, 'mp-1886327': <CalcType.GGA_Static: 'GGA Static'>}"
mp-1198867,H40 Rh2 C6 N18 Cl12 O2,1.4438,"{'mp-1198867': <CalcType.GGA_Structure_Optimization: 'GGA Structure Optimization'>, 'mp-1850694': <CalcType.GGA_Static: 'GGA Static'>, 'mp-1981714': <CalcType.GGA_Static: 'GGA Static'>}"
mp-1200075,H26 Pt2 C6 N6 Cl4 O2,2.3108,"{'mp-1200075': <CalcType.GGA_Structure_Optimization: 'GGA Structure Optimization'>, 'mp-1928535': <CalcType.GGA_Static: 'GGA Static'>, 'mp-1983619': <CalcType.GGA_Static: 'GGA Static'>}"
mp-556725,Cu2 H16 C4 Br6 N2 O2,0.1273,"{'mp-905086': <CalcType.GGA_Static: 'GGA Static'>, 'mp-918413': <CalcType.GGA_NSCF_Line: 'GGA NSCF Line'>, 'mp-919417': <CalcType.GGA_NSCF_Line: 'GGA NSCF Line'>, 'mp-556725': <CalcType.GGA_Structure_Optimization: 'GGA Structure Optimization'>, 'mp-1404056': <CalcType.GGA_Static: 'GGA Static'>, 'mp-1752490': <CalcType.GGA_NSCF_Uniform: 'GGA NSCF Uniform'>, 'mp-1821771': <CalcType.GGA_Static: 'GGA Static'>, 'mp-1619192': <CalcType.GGA_NSCF_Line: 'GGA NSCF Line'>, 'mp-2107330': <CalcType.GGA_NSCF_Line: 'GGA NSCF Line'>}"
mp-557379,P8 H24 C16 N8 Cl8 O4,3.0089,"{'mp-680929': <CalcType.GGA_NSCF_Line: 'GGA NSCF Line'>, 'mp-701142': <CalcType.GGA_NSCF_Line: 'GGA NSCF Line'>, 'mp-665661': <CalcType.GGA_Static: 'GGA Static'>, 'mp-557379': <CalcType.GGA_Structure_Optimization: 'GGA Structure Optimization'>, 'mp-1350498': <CalcType.GGA_Static: 'GGA Static'>, 'mp-1894581': <CalcType.GGA_Static: 'GGA Static'>}"
mp-560849,Fe2 H28 C8 N2 O2 F8,3.1505,"{'mp-600365': <CalcType.GGA_U_Structure_Optimization: 'GGA+U Structure Optimization'>, 'mp-656037': <CalcType.GGA_U_Static: 'GGA+U Static'>, 'mp-659371': <CalcType.GGA_U_NSCF_Line: 'GGA+U NSCF Line'>, 'mp-669088': <CalcType.GGA_U_NSCF_Line: 'GGA+U NSCF Line'>, 'mp-566219': <CalcType.GGA_U_Structure_Optimization: 'GGA+U Structure Optimization'>, 'mp-560849': <CalcType.GGA_Structure_Optimization: 'GGA Structure Optimization'>, 'mp-1326356': <CalcType.GGA_U_Static: 'GGA+U Static'>, 'mp-1679628': <CalcType.GGA_U_NSCF_Uniform: 'GGA+U NSCF Uniform'>, 'mp-1814837': <CalcType.GGA_U_Static: 'GGA+U Static'>}"
mp-560249,Si2 H16 C4 N2 Cl2 O2,5.0286,"{'mp-659179': <CalcType.GGA_NSCF_Line: 'GGA NSCF Line'>, 'mp-654835': <CalcType.GGA_Static: 'GGA Static'>, 'mp-560249': <CalcType.GGA_Structure_Optimization: 'GGA Structure Optimization'>, 'mp-656012': <CalcType.GGA_NSCF_Line: 'GGA NSCF Line'>, 'mp-1157838': <CalcType.GGA_Structure_Optimization: 'GGA Structure Optimization'>, 'mp-1248225': <CalcType.GGA_Structure_Optimization: 'GGA Structure Optimization'>, 'mp-1249143': <CalcType.GGA_NMR_Electric_Field_Gradient: 'GGA NMR Electric Field Gradient'>, 'mp-1255410': <CalcType.GGA_NMR_Nuclear_Shielding: 'GGA NMR Nuclear Shielding'>, 'mp-1424622': <CalcType.GGA_Static: 'GGA Static'>, 'mp-1767856': <CalcType.GGA_NSCF_Uniform: 'GGA NSCF Uniform'>, 'mp-1842333': <CalcType.GGA_Static: 'GGA Static'>, 'mp-1609676': <CalcType.GGA_NSCF_Line: 'GGA NSCF Line'>, 'mp-2173239': <CalcType.GGA_NSCF_Line: 'GGA NSCF Line'>, 'mp-2327181': <CalcType.GGA_NSCF_Line: 'GGA NSCF Line'>}"
mp-572874,Al2 H28 C8 N2 O2 F8,5.1156,"{'mp-654883': <CalcType.GGA_Static: 'GGA Static'>, 'mp-659389': <CalcType.GGA_NSCF_Line: 'GGA NSCF Line'>, 'mp-656205': <CalcType.GGA_NSCF_Line: 'GGA NSCF Line'>, 'mp-572874': <CalcType.GGA_Structure_Optimization: 'GGA Structure Optimization'>, 'mp-1182895': <CalcType.GGA_Structure_Optimization: 'GGA Structure Optimization'>, 'mp-1257570': <CalcType.GGA_NMR_Electric_Field_Gradient: 'GGA NMR Electric Field Gradient'>, 'mp-1261488': <CalcType.GGA_NMR_Nuclear_Shielding: 'GGA NMR Nuclear Shielding'>, 'mp-1262137': <CalcType.GGA_Structure_Optimization: 'GGA Structure Optimization'>, 'mp-1372758': <CalcType.GGA_Static: 'GGA Static'>, 'mp-1891936': <CalcType.GGA_Static: 'GGA Static'>}"
mp-697033,Cd2 H8 C2 N4 Cl4 O2,3.5746,"{'mp-732301': <CalcType.GGA_Static: 'GGA Static'>, 'mp-743165': <CalcType.GGA_NSCF_Line: 'GGA NSCF Line'>, 'mp-697033': <CalcType.GGA_Structure_Optimization: 'GGA Structure Optimization'>, 'mp-1382018': <CalcType.GGA_Static: 'GGA Static'>, 'mp-1674710': <CalcType.GGA_NSCF_Uniform: 'GGA NSCF Uniform'>, 'mp-1806176': <CalcType.GGA_Static: 'GGA Static'>, 'mp-1629962': <CalcType.GGA_NSCF_Line: 'GGA NSCF Line'>, 'mp-749742': <CalcType.GGA_NSCF_Line: 'GGA NSCF Line'>, 'mp-2170873': <CalcType.GGA_NSCF_Line: 'GGA NSCF Line'>, 'mp-2315761': <CalcType.GGA_NSCF_Line: 'GGA NSCF Line'>}"
mp-651173,K6 W2 C8 N8 O2 F2,3.2134,"{'mp-821345': <CalcType.GGA_U_NSCF_Line: 'GGA+U NSCF Line'>, 'mp-796448': <CalcType.GGA_U_Static: 'GGA+U Static'>, 'mp-651173': <CalcType.GGA_U_Structure_Optimization: 'GGA+U Structure Optimization'>, 'mp-836160': <CalcType.GGA_Static: 'GGA Static'>, 'mp-837468': <CalcType.GGA_NSCF_Line: 'GGA NSCF Line'>, 'mp-1394578': <CalcType.GGA_U_Static: 'GGA+U Static'>, 'mp-1752738': <CalcType.GGA_U_NSCF_Uniform: 'GGA+U NSCF Uniform'>, 'mp-1936307': <CalcType.GGA_U_Static: 'GGA+U Static'>, 'mp-838047': <CalcType.GGA_NSCF_Line: 'GGA NSCF Line'>, 'mp-822101': <CalcType.GGA_U_NSCF_Line: 'GGA+U NSCF Line'>, 'mp-1618651': <CalcType.GGA_U_NSCF_Line: 'GGA+U NSCF Line'>, 'mp-2110612': <CalcType.GGA_U_NSCF_Line: 'GGA+U NSCF Line'>, 'mp-2304992': <CalcType.GGA_U_NSCF_Line: 'GGA+U NSCF Line'>}"
mp-697108,K6 H2 Rh2 C10 N10 O2,3.835599999999999,"{'mp-726229': <CalcType.GGA_Static: 'GGA Static'>, 'mp-697108': <CalcType.GGA_Structure_Optimization: 'GGA Structure Optimization'>, 'mp-739343': <CalcType.GGA_NSCF_Line: 'GGA NSCF Line'>, 'mp-1445632': <CalcType.GGA_Static: 'GGA Static'>, 'mp-1742548': <CalcType.GGA_NSCF_Uniform: 'GGA NSCF Uniform'>, 'mp-1937453': <CalcType.GGA_Static: 'GGA Static'>, 'mp-1655055': <CalcType.GGA_NSCF_Line: 'GGA NSCF Line'>, 'mp-747154': <CalcType.GGA_NSCF_Line: 'GGA NSCF Line'>, 'mp-2099958': <CalcType.GGA_NSCF_Line: 'GGA NSCF Line'>, 'mp-2301836': <CalcType.GGA_NSCF_Line: 'GGA NSCF Line'>, 'mp-2901849': <CalcType.r2SCAN_Structure_Optimization: 'r2SCAN Structure Optimization'>}"
mp-697077,As2 H6 C2 N2 O2 F18,4.9219,"{'mp-743007': <CalcType.GGA_NSCF_Line: 'GGA NSCF Line'>, 'mp-697077': <CalcType.GGA_Structure_Optimization: 'GGA Structure Optimization'>, 'mp-731923': <CalcType.GGA_Static: 'GGA Static'>, 'mp-1182370': <CalcType.GGA_Structure_Optimization: 'GGA Structure Optimization'>, 'mp-1397312': <CalcType.GGA_Static: 'GGA Static'>, 'mp-1732066': <CalcType.GGA_NSCF_Uniform: 'GGA NSCF Uniform'>, 'mp-1839469': <CalcType.GGA_Static: 'GGA Static'>, 'mp-749729': <CalcType.GGA_NSCF_Line: 'GGA NSCF Line'>, 'mp-1628172': <CalcType.GGA_NSCF_Line: 'GGA NSCF Line'>, 'mp-2117752': <CalcType.GGA_NSCF_Line: 'GGA NSCF Line'>, 'mp-2308592': <CalcType.GGA_NSCF_Line: 'GGA NSCF Line'>}"