Material ID,Composition,Band Gap,Calc Types
mp-776613,Li4 Ti1 Cu2 Ni3 P6 O24,0.050899999999999,"{'mp-776613': <CalcType.GGA_U_Structure_Optimization: 'GGA+U Structure Optimization'>, 'mp-1359714': <CalcType.GGA_U_Static: 'GGA+U Static'>, 'mp-1818474': <CalcType.GGA_U_Static: 'GGA+U Static'>}"
mp-776753,Li4 Cr1 Fe2 Ni3 P6 O24,1.427699999999999,"{'mp-776753': <CalcType.GGA_U_Structure_Optimization: 'GGA+U Structure Optimization'>, 'mp-814900': <CalcType.GGA_U_NSCF_Line: 'GGA+U NSCF Line'>, 'mp-805841': <CalcType.GGA_U_Static: 'GGA+U Static'>, 'mp-1331922': <CalcType.GGA_U_Static: 'GGA+U Static'>, 'mp-815608': <CalcType.GGA_U_NSCF_Line: 'GGA+U NSCF Line'>, 'mp-1819042': <CalcType.GGA_U_Static: 'GGA+U Static'>}"
mp-777855,Li4 Nb1 Fe3 Cu2 P6 O24,0.14270000000000002,"{'mp-777855': <CalcType.GGA_U_Structure_Optimization: 'GGA+U Structure Optimization'>, 'mp-1359322': <CalcType.GGA_U_Static: 'GGA+U Static'>, 'mp-1824183': <CalcType.GGA_U_Static: 'GGA+U Static'>}"
mp-1196794,K2 Zn4 Ru4 C8 Cl4 O48,0.0,"{'mp-1196794': <CalcType.GGA_Structure_Optimization: 'GGA Structure Optimization'>, 'mp-1331289': <CalcType.GGA_Static: 'GGA Static'>}"
mp-1228694,Ba6 Nd3 Ti1 Cu6 Mo2 O24,0.0,"{'mp-1228694': <CalcType.GGA_U_Structure_Optimization: 'GGA+U Structure Optimization'>, 'mp-1359243': <CalcType.GGA_U_Static: 'GGA+U Static'>, 'mp-1889563': <CalcType.GGA_U_Static: 'GGA+U Static'>, 'mp-2902545': <CalcType.r2SCAN_Structure_Optimization: 'r2SCAN Structure Optimization'>}"
mp-693600,Ba4 La12 Mg8 Ti6 W2 O48,0.0034000000000000002,"{'mp-725975': <CalcType.GGA_Static: 'GGA Static'>, 'mp-693600': <CalcType.GGA_Structure_Optimization: 'GGA Structure Optimization'>, 'mp-840127': <CalcType.GGA_NSCF_Line: 'GGA NSCF Line'>, 'mp-1845119': <CalcType.GGA_U_Static: 'GGA+U Static'>, 'mp-841251': <CalcType.GGA_NSCF_Line: 'GGA NSCF Line'>}"
mp-744094,Ba4 La12 Mg8 Ti6 W2 O48,2.1649,"{'mp-849044': <CalcType.GGA_U_NSCF_Line: 'GGA+U NSCF Line'>, 'mp-818381': <CalcType.GGA_U_Static: 'GGA+U Static'>, 'mp-744094': <CalcType.GGA_U_Structure_Optimization: 'GGA+U Structure Optimization'>, 'mp-1334944': <CalcType.GGA_U_Static: 'GGA+U Static'>, 'mp-1769881': <CalcType.GGA_U_Static: 'GGA+U Static'>, 'mp-1848966': <CalcType.GGA_U_Static: 'GGA+U Static'>}"
mp-1197226,K2 Na2 Al12 Si12 H8 O48,4.737299999999999,"{'mp-1197226': <CalcType.GGA_Structure_Optimization: 'GGA Structure Optimization'>, 'mp-1365354': <CalcType.GGA_Static: 'GGA Static'>, 'mp-1869366': <CalcType.GGA_Static: 'GGA Static'>, 'mp-1628556': <CalcType.GGA_NSCF_Line: 'GGA NSCF Line'>}"
mp-693463,Na2 Ca6 Sc2 Zn6 Si16 O48,4.3797999999999995,"{'mp-731608': <CalcType.GGA_Static: 'GGA Static'>, 'mp-859557': <CalcType.GGA_NSCF_Line: 'GGA NSCF Line'>, 'mp-693463': <CalcType.GGA_Structure_Optimization: 'GGA Structure Optimization'>, 'mp-1252049': <CalcType.GGA_NMR_Electric_Field_Gradient: 'GGA NMR Electric Field Gradient'>, 'mp-1252343': <CalcType.GGA_Structure_Optimization: 'GGA Structure Optimization'>, 'mp-1254066': <CalcType.GGA_NMR_Nuclear_Shielding: 'GGA NMR Nuclear Shielding'>, 'mp-1327107': <CalcType.GGA_Static: 'GGA Static'>, 'mp-1897699': <CalcType.GGA_Static: 'GGA Static'>, 'mp-749250': <CalcType.GGA_NSCF_Line: 'GGA NSCF Line'>}"
mp-720987,Na6 Ca2 Sc6 Zn2 Si16 O48,3.869399999999999,"{'mp-734385': <CalcType.GGA_Static: 'GGA Static'>, 'mp-720987': <CalcType.GGA_Structure_Optimization: 'GGA Structure Optimization'>, 'mp-848976': <CalcType.GGA_NSCF_Line: 'GGA NSCF Line'>, 'mp-1173731': <CalcType.GGA_Structure_Optimization: 'GGA Structure Optimization'>, 'mp-1365311': <CalcType.GGA_Static: 'GGA Static'>, 'mp-1849121': <CalcType.GGA_Static: 'GGA Static'>, 'mp-745456': <CalcType.GGA_NSCF_Line: 'GGA NSCF Line'>, 'mp-1628859': <CalcType.GGA_NSCF_Line: 'GGA NSCF Line'>}"
mp-725593,Na2 Ca6 Al2 Fe6 Si16 O48,3.3099,"{'mp-743726': <CalcType.GGA_U_Structure_Optimization: 'GGA+U Structure Optimization'>, 'mp-1134124': <CalcType.GGA_U_Structure_Optimization: 'GGA+U Structure Optimization'>, 'mp-1173806': <CalcType.GGA_U_Structure_Optimization: 'GGA+U Structure Optimization'>, 'mp-725593': <CalcType.GGA_Static: 'GGA Static'>, 'mp-1251417': <CalcType.GGA_U_Structure_Optimization: 'GGA+U Structure Optimization'>, 'mp-1258772': <CalcType.GGA_U_NMR_Nuclear_Shielding: 'GGA+U NMR Nuclear Shielding'>, 'mp-1259894': <CalcType.GGA_U_NMR_Nuclear_Shielding: 'GGA+U NMR Nuclear Shielding'>, 'mp-1264063': <CalcType.GGA_U_Structure_Optimization: 'GGA+U Structure Optimization'>, 'mp-1266524': <CalcType.GGA_U_NMR_Electric_Field_Gradient: 'GGA+U NMR Electric Field Gradient'>, 'mp-1268169': <CalcType.GGA_U_NMR_Electric_Field_Gradient: 'GGA+U NMR Electric Field Gradient'>, 'mp-1328091': <CalcType.GGA_U_Static: 'GGA+U Static'>, 'mp-1848527': <CalcType.GGA_U_Static: 'GGA+U Static'>}"
mp-728512,Ca8 Ce4 Ti2 Si8 B8 O48,1.2601,"{'mp-1197240': <CalcType.GGA_Structure_Optimization: 'GGA Structure Optimization'>, 'mp-728512': <CalcType.GGA_Static: 'GGA Static'>, 'mp-733212': <CalcType.GGA_NSCF_Line: 'GGA NSCF Line'>, 'mp-1350347': <CalcType.GGA_Static: 'GGA Static'>, 'mp-1920093': <CalcType.GGA_Static: 'GGA Static'>, 'mp-737757': <CalcType.GGA_NSCF_Line: 'GGA NSCF Line'>}"
mp-1248585,Na6 Ca2 Sc6 Zn2 Si16 O48,3.6808,"{'mp-1248585': <CalcType.GGA_Structure_Optimization: 'GGA Structure Optimization'>, 'mp-1253135': <CalcType.GGA_NMR_Nuclear_Shielding: 'GGA NMR Nuclear Shielding'>, 'mp-1264563': <CalcType.GGA_NMR_Electric_Field_Gradient: 'GGA NMR Electric Field Gradient'>, 'mp-1850072': <CalcType.GGA_Static: 'GGA Static'>, 'mp-2912304': <CalcType.r2SCAN_Structure_Optimization: 'r2SCAN Structure Optimization'>}"
mp-653840,K4 Cu28 Te4 S20 Cl4 O96,0.0,"{'mp-988566': <CalcType.GGA_Static: 'GGA Static'>, 'mp-653840': <CalcType.GGA_Structure_Optimization: 'GGA Structure Optimization'>, 'mp-1337766': <CalcType.GGA_Static: 'GGA Static'>, 'mp-1656046': <CalcType.GGA_Static: 'GGA Static'>}"
mp-1228617,Ba3 Sr2 Ca4 Mg3 Si6 O24,4.8935,"{'mp-1228617': <CalcType.GGA_Structure_Optimization: 'GGA Structure Optimization'>, 'mp-1358234': <CalcType.GGA_Static: 'GGA Static'>, 'mp-1923562': <CalcType.GGA_Static: 'GGA Static'>}"
mp-1233291,Mg1 Ti3 Fe2 Co1 P6 O24,0.0238,"{'mp-1233291': <CalcType.GGA_U_Structure_Optimization: 'GGA+U Structure Optimization'>, 'mp-2216847': <CalcType.GGA_U_Static: 'GGA+U Static'>}"
mp-1233795,Mg1 Cr2 Fe3 Ni1 P6 O24,1.656899999999999,"{'mp-1233795': <CalcType.GGA_U_Structure_Optimization: 'GGA+U Structure Optimization'>, 'mp-2216970': <CalcType.GGA_U_Static: 'GGA+U Static'>, 'mp-2220630': <CalcType.GGA_U_Structure_Optimization: 'GGA+U Structure Optimization'>, 'mp-2220428': <CalcType.GGA_U_Static: 'GGA+U Static'>}"
mp-2216303,Mg1 Fe3 Co2 Sb1 P6 O24,1.686499999999999,"{'mp-2216303': <CalcType.GGA_U_Structure_Optimization: 'GGA+U Structure Optimization'>, 'mp-2216987': <CalcType.GGA_U_Static: 'GGA+U Static'>}"
mp-1233136,Mg1 Fe3 Co2 Sb1 P6 O24,0.39220000000000005,"{'mp-1233136': <CalcType.GGA_U_Structure_Optimization: 'GGA+U Structure Optimization'>, 'mp-2216919': <CalcType.GGA_U_Static: 'GGA+U Static'>}"
mp-1233569,Mg1 Fe3 Co2 Sb1 P6 O24,0.28899999999999904,"{'mp-1233569': <CalcType.GGA_U_Structure_Optimization: 'GGA+U Structure Optimization'>, 'mp-2216941': <CalcType.GGA_U_Static: 'GGA+U Static'>}"
mp-1233744,Mg1 Fe3 Ni2 Sb1 P6 O24,0.0,"{'mp-1233744': <CalcType.GGA_U_Structure_Optimization: 'GGA+U Structure Optimization'>, 'mp-2217018': <CalcType.GGA_U_Static: 'GGA+U Static'>, 'mp-2220225': <CalcType.GGA_U_Structure_Optimization: 'GGA+U Structure Optimization'>, 'mp-2220246': <CalcType.GGA_U_Static: 'GGA+U Static'>}"
mp-769078,Na2 Li3 Ti3 Al1 P6 O24,0.069799999999999,"{'mp-769078': <CalcType.GGA_Structure_Optimization: 'GGA Structure Optimization'>, 'mp-1332861': <CalcType.GGA_Static: 'GGA Static'>, 'mp-1822963': <CalcType.GGA_Static: 'GGA Static'>}"
mp-1233872,Mg1 Fe3 Ni2 Sb1 P6 O24,0.1368,"{'mp-1233872': <CalcType.GGA_U_Structure_Optimization: 'GGA+U Structure Optimization'>, 'mp-2220603': <CalcType.GGA_U_Structure_Optimization: 'GGA+U Structure Optimization'>, 'mp-2216870': <CalcType.GGA_U_Static: 'GGA+U Static'>, 'mp-2220230': <CalcType.GGA_U_Static: 'GGA+U Static'>}"
mp-1234418,Mg1 Cr2 Fe3 Ni1 P6 O24,1.894499999999999,"{'mp-1234418': <CalcType.GGA_U_Structure_Optimization: 'GGA+U Structure Optimization'>, 'mp-2217050': <CalcType.GGA_U_Static: 'GGA+U Static'>}"
mp-1234431,Mg1 Fe3 Ni2 Sb1 P6 O24,1.275499999999999,"{'mp-1234431': <CalcType.GGA_U_Structure_Optimization: 'GGA+U Structure Optimization'>, 'mp-2216816': <CalcType.GGA_U_Static: 'GGA+U Static'>, 'mp-2220299': <CalcType.GGA_U_Structure_Optimization: 'GGA+U Structure Optimization'>, 'mp-2220312': <CalcType.GGA_U_Static: 'GGA+U Static'>}"
mp-2216237,Mg1 Cr2 Fe3 Ni1 P6 O24,1.2258,"{'mp-2216831': <CalcType.GGA_U_Static: 'GGA+U Static'>, 'mp-2216237': <CalcType.GGA_U_Structure_Optimization: 'GGA+U Structure Optimization'>}"
mp-771567,Li1 Ti3 Mn1 Cr1 P6 O24,2.346899999999999,"{'mp-772224': <CalcType.GGA_U_Structure_Optimization: 'GGA+U Structure Optimization'>, 'mp-803931': <CalcType.GGA_U_Static: 'GGA+U Static'>, 'mp-812748': <CalcType.GGA_U_NSCF_Line: 'GGA+U NSCF Line'>, 'mp-771567': <CalcType.GGA_Structure_Optimization: 'GGA Structure Optimization'>, 'mp-832583': <CalcType.GGA_NSCF_Line: 'GGA NSCF Line'>, 'mp-1354618': <CalcType.GGA_U_Static: 'GGA+U Static'>, 'mp-1822752': <CalcType.GGA_U_Static: 'GGA+U Static'>, 'mp-833354': <CalcType.GGA_NSCF_Line: 'GGA NSCF Line'>, 'mp-813396': <CalcType.GGA_U_NSCF_Line: 'GGA+U NSCF Line'>}"
mp-1220864,Na8 Al3 Ga3 Si6 Cl2 O24,4.3862,"{'mp-1220864': <CalcType.GGA_Structure_Optimization: 'GGA Structure Optimization'>, 'mp-1350454': <CalcType.GGA_Static: 'GGA Static'>, 'mp-1680822': <CalcType.GGA_NSCF_Uniform: 'GGA NSCF Uniform'>, 'mp-1880947': <CalcType.GGA_Static: 'GGA Static'>}"
mp-1233667,Mg1 Ti3 Fe2 Co1 P6 O24,0.0,"{'mp-1233667': <CalcType.GGA_U_Structure_Optimization: 'GGA+U Structure Optimization'>, 'mp-2216808': <CalcType.GGA_U_Static: 'GGA+U Static'>}"
mp-1234543,Mg1 Cr2 Fe3 Ni1 P6 O24,1.246499999999999,{'mp-1234543': <CalcType.GGA_U_Structure_Optimization: 'GGA+U Structure Optimization'>}
mp-1221456,Na2 Mg2 Fe2 Se3 S3 O24,1.822299999999999,"{'mp-1221456': <CalcType.GGA_U_Structure_Optimization: 'GGA+U Structure Optimization'>, 'mp-1237986': <CalcType.GGA_U_Structure_Optimization: 'GGA+U Structure Optimization'>, 'mp-1380311': <CalcType.GGA_U_Static: 'GGA+U Static'>, 'mp-1684857': <CalcType.GGA_U_NSCF_Uniform: 'GGA+U NSCF Uniform'>, 'mp-1825714': <CalcType.GGA_U_Static: 'GGA+U Static'>}"
mp-1234239,Mg1 Fe3 Co2 Sb1 P6 O24,0.0,"{'mp-1234239': <CalcType.GGA_U_Structure_Optimization: 'GGA+U Structure Optimization'>, 'mp-2216855': <CalcType.GGA_U_Static: 'GGA+U Static'>}"
mp-1233940,Mg1 Cr2 Fe3 Ni1 P6 O24,1.5388000000000002,"{'mp-1233940': <CalcType.GGA_U_Structure_Optimization: 'GGA+U Structure Optimization'>, 'mp-2216823': <CalcType.GGA_U_Static: 'GGA+U Static'>}"
mp-2216001,Mg1 Ti3 Fe2 Co1 P6 O24,0.010400000000000001,"{'mp-2216897': <CalcType.GGA_U_Static: 'GGA+U Static'>, 'mp-2216001': <CalcType.GGA_U_Structure_Optimization: 'GGA+U Structure Optimization'>}"
mp-1233428,Mg1 V1 Cr2 Fe3 P6 O24,0.6977000000000001,"{'mp-1233428': <CalcType.GGA_U_Structure_Optimization: 'GGA+U Structure Optimization'>, 'mp-2216755': <CalcType.GGA_U_Static: 'GGA+U Static'>}"
mp-1233860,Mg1 Fe3 Ni2 Sb1 P6 O24,1.6338,"{'mp-1233860': <CalcType.GGA_U_Structure_Optimization: 'GGA+U Structure Optimization'>, 'mp-2217003': <CalcType.GGA_U_Static: 'GGA+U Static'>}"
mp-1234314,Mg1 Fe3 Ni2 Sb1 P6 O24,1.945,"{'mp-1234314': <CalcType.GGA_U_Structure_Optimization: 'GGA+U Structure Optimization'>, 'mp-2216949': <CalcType.GGA_U_Static: 'GGA+U Static'>, 'mp-2220224': <CalcType.GGA_U_Structure_Optimization: 'GGA+U Structure Optimization'>, 'mp-2220328': <CalcType.GGA_U_Static: 'GGA+U Static'>}"
mp-849337,Na1 Li3 Ti2 Fe2 P6 O24,2.4454000000000002,"{'mp-857011': <CalcType.GGA_U_Static: 'GGA+U Static'>, 'mp-857936': <CalcType.GGA_U_NSCF_Line: 'GGA+U NSCF Line'>, 'mp-850140': <CalcType.GGA_U_Structure_Optimization: 'GGA+U Structure Optimization'>, 'mp-849337': <CalcType.GGA_Structure_Optimization: 'GGA Structure Optimization'>, 'mp-1360184': <CalcType.GGA_U_Static: 'GGA+U Static'>, 'mp-1815810': <CalcType.GGA_U_Static: 'GGA+U Static'>, 'mp-858919': <CalcType.GGA_U_NSCF_Line: 'GGA+U NSCF Line'>}"
mp-776043,Na1 Li3 Ti2 Cr2 P6 O24,2.8178,"{'mp-777190': <CalcType.GGA_U_Structure_Optimization: 'GGA+U Structure Optimization'>, 'mp-815032': <CalcType.GGA_U_NSCF_Line: 'GGA+U NSCF Line'>, 'mp-805892': <CalcType.GGA_U_Static: 'GGA+U Static'>, 'mp-776043': <CalcType.GGA_Structure_Optimization: 'GGA Structure Optimization'>, 'mp-833136': <CalcType.GGA_NSCF_Line: 'GGA NSCF Line'>, 'mp-787849': <CalcType.GGA_Static: 'GGA Static'>, 'mp-1358184': <CalcType.GGA_U_Static: 'GGA+U Static'>, 'mp-1771381': <CalcType.GGA_U_Static: 'GGA+U Static'>, 'mp-1817998': <CalcType.GGA_U_Static: 'GGA+U Static'>, 'mp-834116': <CalcType.GGA_NSCF_Line: 'GGA NSCF Line'>, 'mp-815787': <CalcType.GGA_U_NSCF_Line: 'GGA+U NSCF Line'>}"
mp-773025,H48 Pt1 W6 C8 N24 O24,2.9817,"{'mp-773991': <CalcType.GGA_U_Structure_Optimization: 'GGA+U Structure Optimization'>, 'mp-804763': <CalcType.GGA_U_Static: 'GGA+U Static'>, 'mp-813487': <CalcType.GGA_U_NSCF_Line: 'GGA+U NSCF Line'>, 'mp-773025': <CalcType.GGA_Structure_Optimization: 'GGA Structure Optimization'>, 'mp-832702': <CalcType.GGA_NSCF_Line: 'GGA NSCF Line'>, 'mp-1337504': <CalcType.GGA_U_Static: 'GGA+U Static'>, 'mp-1851570': <CalcType.GGA_U_Static: 'GGA+U Static'>, 'mp-833511': <CalcType.GGA_NSCF_Line: 'GGA NSCF Line'>, 'mp-814274': <CalcType.GGA_U_NSCF_Line: 'GGA+U NSCF Line'>}"
mp-1210323,Na2 Al10 Fe2 P8 H20 O48,4.577999999999999,"{'mp-1210323': <CalcType.GGA_U_Structure_Optimization: 'GGA+U Structure Optimization'>, 'mp-1920636': <CalcType.GGA_U_Static: 'GGA+U Static'>}"
mp-1210892,Na2 Mg2 Al10 P8 H20 O48,5.45,"{'mp-1210892': <CalcType.GGA_Structure_Optimization: 'GGA Structure Optimization'>, 'mp-1237006': <CalcType.GGA_Structure_Optimization: 'GGA Structure Optimization'>, 'mp-1366136': <CalcType.GGA_Static: 'GGA Static'>, 'mp-1920235': <CalcType.GGA_Static: 'GGA Static'>}"
mp-707985,K6 Na6 Te2 P12 H12 O48,3.2156000000000002,"{'mp-733552': <CalcType.GGA_NSCF_Line: 'GGA NSCF Line'>, 'mp-774772': <CalcType.GGA_Structure_Optimization: 'GGA Structure Optimization'>, 'mp-729058': <CalcType.GGA_Static: 'GGA Static'>, 'mp-707985': <CalcType.GGA_Structure_Optimization: 'GGA Structure Optimization'>, 'mp-1325931': <CalcType.GGA_Static: 'GGA Static'>, 'mp-737952': <CalcType.GGA_NSCF_Line: 'GGA NSCF Line'>, 'mp-2912239': <CalcType.r2SCAN_Structure_Optimization: 'r2SCAN Structure Optimization'>}"
mp-534775,Li2 Ti6 Mn2 Cr2 P12 O48,2.151799999999999,"{'mp-729610': <CalcType.GGA_U_Structure_Optimization: 'GGA+U Structure Optimization'>, 'mp-738077': <CalcType.GGA_U_Static: 'GGA+U Static'>, 'mp-725691': <CalcType.GGA_Static: 'GGA Static'>, 'mp-834456': <CalcType.GGA_NSCF_Line: 'GGA NSCF Line'>, 'mp-807534': <CalcType.GGA_U_Static: 'GGA+U Static'>, 'mp-826338': <CalcType.GGA_Static: 'GGA Static'>, 'mp-816615': <CalcType.GGA_U_NSCF_Line: 'GGA+U NSCF Line'>, 'mp-534775': <CalcType.GGA_Structure_Optimization: 'GGA Structure Optimization'>, 'mp-1920305': <CalcType.GGA_U_Static: 'GGA+U Static'>, 'mp-835064': <CalcType.GGA_NSCF_Line: 'GGA NSCF Line'>, 'mp-862350': <CalcType.GGA_U_NSCF_Line: 'GGA+U NSCF Line'>}"