Material ID,Composition,Band Gap,Calc Types
mp-1177877,Li4 Mn2 V2 P4 O16 F4,0.8944999999999991,"{'mp-1177877': <CalcType.GGA_U_Structure_Optimization: 'GGA+U Structure Optimization'>, 'mp-1273452': <CalcType.GGA_U_Structure_Optimization: 'GGA+U Structure Optimization'>, 'mp-1295128': <CalcType.GGA_U_Structure_Optimization: 'GGA+U Structure Optimization'>, 'mp-1275129': <CalcType.GGA_U_Structure_Optimization: 'GGA+U Structure Optimization'>, 'mp-1293138': <CalcType.GGA_U_Static: 'GGA+U Static'>, 'mp-1291361': <CalcType.GGA_U_Structure_Optimization: 'GGA+U Structure Optimization'>, 'mp-1303385': <CalcType.GGA_U_Static: 'GGA+U Static'>, 'mp-1304918': <CalcType.GGA_U_Static: 'GGA+U Static'>, 'mp-1310149': <CalcType.GGA_U_Static: 'GGA+U Static'>, 'mp-1320617': <CalcType.GGA_U_Structure_Optimization: 'GGA+U Structure Optimization'>, 'mp-1316179': <CalcType.GGA_U_Structure_Optimization: 'GGA+U Structure Optimization'>, 'mp-1317699': <CalcType.GGA_U_Static: 'GGA+U Static'>, 'mp-1313232': <CalcType.GGA_U_Structure_Optimization: 'GGA+U Structure Optimization'>, 'mp-1308777': <CalcType.GGA_U_Static: 'GGA+U Static'>, 'mp-1318484': <CalcType.GGA_U_Structure_Optimization: 'GGA+U Structure Optimization'>, 'mp-1305860': <CalcType.GGA_U_Static: 'GGA+U Static'>, 'mp-1311177': <CalcType.GGA_U_Static: 'GGA+U Static'>, 'mp-1305228': <CalcType.GGA_U_Static: 'GGA+U Static'>, 'mp-1302280': <CalcType.GGA_U_Static: 'GGA+U Static'>, 'mp-1308282': <CalcType.GGA_U_Static: 'GGA+U Static'>, 'mp-1319554': <CalcType.GGA_U_Static: 'GGA+U Static'>, 'mp-1313666': <CalcType.GGA_U_Static: 'GGA+U Static'>, 'mp-1303985': <CalcType.GGA_U_Structure_Optimization: 'GGA+U Structure Optimization'>, 'mp-1309248': <CalcType.GGA_U_Structure_Optimization: 'GGA+U Structure Optimization'>, 'mp-1314484': <CalcType.GGA_U_Structure_Optimization: 'GGA+U Structure Optimization'>, 'mp-1316762': <CalcType.GGA_U_Structure_Optimization: 'GGA+U Structure Optimization'>, 'mp-1362509': <CalcType.GGA_U_Structure_Optimization: 'GGA+U Structure Optimization'>}"
mp-1177762,Li4 V2 Fe2 P4 O16 F4,1.7344,"{'mp-1177762': <CalcType.GGA_U_Structure_Optimization: 'GGA+U Structure Optimization'>, 'mp-1376396': <CalcType.GGA_U_Static: 'GGA+U Static'>, 'mp-1841155': <CalcType.GGA_U_Static: 'GGA+U Static'>}"
mp-1194979,K4 Nb6 H22 C10 Cl12 O16,1.117999999999999,"{'mp-1194979': <CalcType.GGA_Structure_Optimization: 'GGA Structure Optimization'>, 'mp-1351249': <CalcType.GGA_Static: 'GGA Static'>, 'mp-1850583': <CalcType.GGA_Static: 'GGA Static'>}"
mp-1195156,Rb4 Nb6 H22 C10 Cl12 O16,1.133099999999998,"{'mp-1195156': <CalcType.GGA_Structure_Optimization: 'GGA Structure Optimization'>, 'mp-1849710': <CalcType.GGA_Static: 'GGA Static'>, 'mp-1984036': <CalcType.GGA_Static: 'GGA Static'>}"
mp-1197622,Na4 Tl2 P6 H14 N6 O16,4.3761,"{'mp-1197622': <CalcType.GGA_Structure_Optimization: 'GGA Structure Optimization'>, 'mp-1349141': <CalcType.GGA_Static: 'GGA Static'>, 'mp-1680346': <CalcType.GGA_NSCF_Uniform: 'GGA NSCF Uniform'>, 'mp-1921359': <CalcType.GGA_Static: 'GGA Static'>}"
mp-1196797,Ag2 As2 S32 N32 O16 F12,1.8455,"{'mp-1196797': <CalcType.GGA_Structure_Optimization: 'GGA Structure Optimization'>, 'mp-1338750': <CalcType.GGA_Static: 'GGA Static'>, 'mp-1628782': <CalcType.GGA_NSCF_Line: 'GGA NSCF Line'>}"
mp-1197210,K2 Na4 P6 H14 N6 O16,4.7586,"{'mp-1197210': <CalcType.GGA_Structure_Optimization: 'GGA Structure Optimization'>, 'mp-1211888': <CalcType.GGA_Structure_Optimization: 'GGA Structure Optimization'>, 'mp-1928767': <CalcType.GGA_Static: 'GGA Static'>, 'mp-1986937': <CalcType.GGA_Static: 'GGA Static'>}"
mp-1198806,Na2 Mo6 H58 C16 Br8 O16,1.828399999999999,"{'mp-1198806': <CalcType.GGA_U_Structure_Optimization: 'GGA+U Structure Optimization'>, 'mp-1986048': <CalcType.GGA_U_Static: 'GGA+U Static'>}"
mp-1199919,K4 Mn2 P4 H4 O16 F4,1.4885000000000002,"{'mp-1199919': <CalcType.GGA_U_Structure_Optimization: 'GGA+U Structure Optimization'>, 'mp-1826726': <CalcType.GGA_U_Static: 'GGA+U Static'>, 'mp-1981434': <CalcType.GGA_U_Static: 'GGA+U Static'>}"
mp-1200245,Hg2 H8 C4 S4 O16 F12,3.3164,"{'mp-1200245': <CalcType.GGA_Structure_Optimization: 'GGA Structure Optimization'>, 'mp-1938122': <CalcType.GGA_Static: 'GGA Static'>, 'mp-1984248': <CalcType.GGA_Static: 'GGA Static'>}"
mp-1205055,Te2 C8 S8 N16 Cl4 O16,0.0,"{'mp-1205055': <CalcType.GGA_Structure_Optimization: 'GGA Structure Optimization'>, 'mp-1327741': <CalcType.GGA_Static: 'GGA Static'>}"
mp-1208798,U2 H20 C2 Se4 N8 O16,2.0701,"{'mp-1208798': <CalcType.GGA_Structure_Optimization: 'GGA Structure Optimization'>, 'mp-1238635': <CalcType.GGA_Structure_Optimization: 'GGA Structure Optimization'>, 'mp-1352203': <CalcType.GGA_Static: 'GGA Static'>, 'mp-1685805': <CalcType.GGA_NSCF_Uniform: 'GGA NSCF Uniform'>, 'mp-1894081': <CalcType.GGA_Static: 'GGA Static'>}"
mp-1210735,Mg1 H8 C6 S2 N2 O8,2.7395,"{'mp-1210735': <CalcType.GGA_Structure_Optimization: 'GGA Structure Optimization'>, 'mp-1811609': <CalcType.GGA_Static: 'GGA Static'>}"
mp-1214326,Ca2 H16 C12 S4 N4 O16,2.5632,"{'mp-1214326': <CalcType.GGA_Structure_Optimization: 'GGA Structure Optimization'>, 'mp-1238238': <CalcType.GGA_Structure_Optimization: 'GGA Structure Optimization'>, 'mp-1351288': <CalcType.GGA_Static: 'GGA Static'>, 'mp-1898092': <CalcType.GGA_Static: 'GGA Static'>}"
mp-1212169,K4 Cd2 H4 C16 N12 O16,3.6893000000000002,"{'mp-1212169': <CalcType.GGA_Structure_Optimization: 'GGA Structure Optimization'>, 'mp-1889319': <CalcType.GGA_Static: 'GGA Static'>}"
mp-1393717,Li2 Mn1 V1 P2 O8 F2,0.0,{'mp-1393717': <CalcType.GGA_U_Static: 'GGA+U Static'>}
mp-2226915,Mg1 V1 Cr1 P2 O8 F2,1.8437000000000001,"{'mp-2226915': <CalcType.GGA_U_Structure_Optimization: 'GGA+U Structure Optimization'>, 'mp-2242092': <CalcType.GGA_U_Static: 'GGA+U Static'>}"
mp-2240838,Mg1 Mn1 V1 P2 O8 F2,0.691399999999999,{'mp-2240838': <CalcType.GGA_U_Structure_Optimization: 'GGA+U Structure Optimization'>}
mp-2240896,Mg1 V1 Fe1 P2 O8 F2,1.155,{'mp-2240896': <CalcType.GGA_U_Structure_Optimization: 'GGA+U Structure Optimization'>}
mp-24657,Zn2 B2 P4 H8 N2 O16,4.8437,"{'mp-725860': <CalcType.GGA_Static: 'GGA Static'>, 'mp-739018': <CalcType.GGA_NSCF_Line: 'GGA NSCF Line'>, 'mp-24657': <CalcType.GGA_Structure_Optimization: 'GGA Structure Optimization'>, 'mp-1443715': <CalcType.GGA_Static: 'GGA Static'>, 'mp-1755147': <CalcType.GGA_NSCF_Uniform: 'GGA NSCF Uniform'>, 'mp-1838991': <CalcType.GGA_Static: 'GGA Static'>, 'mp-746788': <CalcType.GGA_NSCF_Line: 'GGA NSCF Line'>, 'mp-1621673': <CalcType.GGA_NSCF_Line: 'GGA NSCF Line'>, 'mp-2112928': <CalcType.GGA_NSCF_Line: 'GGA NSCF Line'>, 'mp-2303651': <CalcType.GGA_NSCF_Line: 'GGA NSCF Line'>}"
mp-567268,Gd2 H16 C20 N2 O16 F24,3.0036,"{'mp-654858': <CalcType.GGA_Static: 'GGA Static'>, 'mp-567268': <CalcType.GGA_Structure_Optimization: 'GGA Structure Optimization'>, 'mp-1181446': <CalcType.GGA_Structure_Optimization: 'GGA Structure Optimization'>, 'mp-1331349': <CalcType.GGA_Static: 'GGA Static'>, 'mp-1848475': <CalcType.GGA_Static: 'GGA Static'>}"
mp-759082,Li6 V3 Cr3 P6 O24 F6,1.889499999999999,"{'mp-763890': <CalcType.GGA_U_Structure_Optimization: 'GGA+U Structure Optimization'>, 'mp-800242': <CalcType.GGA_U_Static: 'GGA+U Static'>, 'mp-804875': <CalcType.GGA_U_NSCF_Line: 'GGA+U NSCF Line'>, 'mp-759082': <CalcType.GGA_Structure_Optimization: 'GGA Structure Optimization'>, 'mp-1352919': <CalcType.GGA_U_Static: 'GGA+U Static'>, 'mp-1883149': <CalcType.GGA_U_Static: 'GGA+U Static'>, 'mp-806371': <CalcType.GGA_U_NSCF_Line: 'GGA+U NSCF Line'>}"
mp-756057,Li4 V2 Fe2 P4 O16 F4,1.8423999999999991,"{'mp-778572': <CalcType.GGA_U_Structure_Optimization: 'GGA+U Structure Optimization'>, 'mp-807129': <CalcType.GGA_U_Static: 'GGA+U Static'>, 'mp-815864': <CalcType.GGA_U_NSCF_Line: 'GGA+U NSCF Line'>, 'mp-756057': <CalcType.GGA_Structure_Optimization: 'GGA Structure Optimization'>, 'mp-1284805': <CalcType.GGA_U_Structure_Optimization: 'GGA+U Structure Optimization'>, 'mp-1275119': <CalcType.GGA_U_Static: 'GGA+U Static'>, 'mp-1298663': <CalcType.GGA_U_Static: 'GGA+U Static'>, 'mp-1277544': <CalcType.GGA_U_Structure_Optimization: 'GGA+U Structure Optimization'>, 'mp-1298674': <CalcType.GGA_U_Structure_Optimization: 'GGA+U Structure Optimization'>, 'mp-1290912': <CalcType.GGA_U_Static: 'GGA+U Static'>, 'mp-1297730': <CalcType.GGA_U_Static: 'GGA+U Static'>, 'mp-1275531': <CalcType.GGA_U_Structure_Optimization: 'GGA+U Structure Optimization'>, 'mp-1284668': <CalcType.GGA_U_Static: 'GGA+U Static'>, 'mp-1307119': <CalcType.GGA_U_Static: 'GGA+U Static'>, 'mp-1318350': <CalcType.GGA_U_Static: 'GGA+U Static'>, 'mp-1304929': <CalcType.GGA_U_Structure_Optimization: 'GGA+U Structure Optimization'>, 'mp-1317618': <CalcType.GGA_U_Static: 'GGA+U Static'>, 'mp-1305792': <CalcType.GGA_U_Structure_Optimization: 'GGA+U Structure Optimization'>, 'mp-1319261': <CalcType.GGA_U_Structure_Optimization: 'GGA+U Structure Optimization'>, 'mp-1320115': <CalcType.GGA_U_Structure_Optimization: 'GGA+U Structure Optimization'>, 'mp-1322418': <CalcType.GGA_U_Structure_Optimization: 'GGA+U Structure Optimization'>, 'mp-1304565': <CalcType.GGA_U_Structure_Optimization: 'GGA+U Structure Optimization'>, 'mp-1303078': <CalcType.GGA_U_Static: 'GGA+U Static'>, 'mp-1312774': <CalcType.GGA_U_Structure_Optimization: 'GGA+U Structure Optimization'>, 'mp-1312072': <CalcType.GGA_U_Static: 'GGA+U Static'>, 'mp-1315057': <CalcType.GGA_U_Structure_Optimization: 'GGA+U Structure Optimization'>, 'mp-1309108': <CalcType.GGA_U_Structure_Optimization: 'GGA+U Structure Optimization'>, 'mp-1304668': <CalcType.GGA_U_Static: 'GGA+U Static'>, 'mp-1317376': <CalcType.GGA_U_Static: 'GGA+U Static'>, 'mp-1303977': <CalcType.GGA_U_Static: 'GGA+U Static'>, 'mp-1308479': <CalcType.GGA_U_Static: 'GGA+U Static'>, 'mp-1315966': <CalcType.GGA_U_Structure_Optimization: 'GGA+U Structure Optimization'>, 'mp-1301846': <CalcType.GGA_U_Static: 'GGA+U Static'>, 'mp-1362931': <CalcType.GGA_U_Structure_Optimization: 'GGA+U Structure Optimization'>, 'mp-1398082': <CalcType.GGA_U_Static: 'GGA+U Static'>, 'mp-1656466': <CalcType.GGA_U_Static: 'GGA+U Static'>, 'mp-816587': <CalcType.GGA_U_NSCF_Line: 'GGA+U NSCF Line'>}"
mp-753686,Li4 V2 Cr2 P4 O16 F4,2.0941,"{'mp-767024': <CalcType.GGA_U_Structure_Optimization: 'GGA+U Structure Optimization'>, 'mp-802137': <CalcType.GGA_U_Static: 'GGA+U Static'>, 'mp-809462': <CalcType.GGA_U_NSCF_Line: 'GGA+U NSCF Line'>, 'mp-753686': <CalcType.GGA_Structure_Optimization: 'GGA Structure Optimization'>, 'mp-883651': <CalcType.GGA_Static: 'GGA Static'>, 'mp-1274940': <CalcType.GGA_U_Static: 'GGA+U Static'>, 'mp-1280558': <CalcType.GGA_U_Static: 'GGA+U Static'>, 'mp-1299462': <CalcType.GGA_U_Structure_Optimization: 'GGA+U Structure Optimization'>, 'mp-1290293': <CalcType.GGA_U_Structure_Optimization: 'GGA+U Structure Optimization'>, 'mp-1291412': <CalcType.GGA_U_Static: 'GGA+U Static'>, 'mp-1321268': <CalcType.GGA_U_Static: 'GGA+U Static'>, 'mp-1308595': <CalcType.GGA_U_Static: 'GGA+U Static'>, 'mp-1322025': <CalcType.GGA_U_Structure_Optimization: 'GGA+U Structure Optimization'>, 'mp-1306388': <CalcType.GGA_U_Structure_Optimization: 'GGA+U Structure Optimization'>, 'mp-1302701': <CalcType.GGA_U_Structure_Optimization: 'GGA+U Structure Optimization'>, 'mp-1313973': <CalcType.GGA_U_Static: 'GGA+U Static'>, 'mp-1309510': <CalcType.GGA_U_Structure_Optimization: 'GGA+U Structure Optimization'>, 'mp-1313239': <CalcType.GGA_U_Structure_Optimization: 'GGA+U Structure Optimization'>, 'mp-1305106': <CalcType.GGA_U_Static: 'GGA+U Static'>, 'mp-1302899': <CalcType.GGA_U_Static: 'GGA+U Static'>, 'mp-1316371': <CalcType.GGA_U_Static: 'GGA+U Static'>, 'mp-1313401': <CalcType.GGA_U_Static: 'GGA+U Static'>, 'mp-1320129': <CalcType.GGA_U_Static: 'GGA+U Static'>, 'mp-1311986': <CalcType.GGA_U_Structure_Optimization: 'GGA+U Structure Optimization'>, 'mp-1308310': <CalcType.GGA_U_Structure_Optimization: 'GGA+U Structure Optimization'>, 'mp-1319501': <CalcType.GGA_U_Static: 'GGA+U Static'>, 'mp-1320260': <CalcType.GGA_U_Static: 'GGA+U Static'>, 'mp-1310589': <CalcType.GGA_U_Static: 'GGA+U Static'>, 'mp-1311340': <CalcType.GGA_U_Structure_Optimization: 'GGA+U Structure Optimization'>, 'mp-1310615': <CalcType.GGA_U_Structure_Optimization: 'GGA+U Structure Optimization'>, 'mp-1310653': <CalcType.GGA_U_Static: 'GGA+U Static'>, 'mp-1321108': <CalcType.GGA_U_Structure_Optimization: 'GGA+U Structure Optimization'>, 'mp-1308437': <CalcType.GGA_U_Structure_Optimization: 'GGA+U Structure Optimization'>, 'mp-1310704': <CalcType.GGA_U_Structure_Optimization: 'GGA+U Structure Optimization'>, 'mp-1310750': <CalcType.GGA_U_Static: 'GGA+U Static'>, 'mp-1321949': <CalcType.GGA_U_Structure_Optimization: 'GGA+U Structure Optimization'>, 'mp-1305554': <CalcType.GGA_U_Structure_Optimization: 'GGA+U Structure Optimization'>, 'mp-1396133': <CalcType.GGA_U_Static: 'GGA+U Static'>, 'mp-809696': <CalcType.GGA_U_NSCF_Line: 'GGA+U NSCF Line'>}"
mp-760236,Li6 V3 Cr3 P6 O24 F6,1.9782000000000002,"{'mp-765064': <CalcType.GGA_U_Structure_Optimization: 'GGA+U Structure Optimization'>, 'mp-804430': <CalcType.GGA_U_Static: 'GGA+U Static'>, 'mp-806895': <CalcType.GGA_U_NSCF_Line: 'GGA+U NSCF Line'>, 'mp-760236': <CalcType.GGA_Structure_Optimization: 'GGA Structure Optimization'>, 'mp-881415': <CalcType.GGA_Static: 'GGA Static'>, 'mp-1353323': <CalcType.GGA_U_Static: 'GGA+U Static'>, 'mp-1658642': <CalcType.GGA_U_Static: 'GGA+U Static'>, 'mp-1685836': <CalcType.GGA_U_NSCF_Uniform: 'GGA+U NSCF Uniform'>, 'mp-1883130': <CalcType.GGA_U_Static: 'GGA+U Static'>, 'mp-808164': <CalcType.GGA_U_NSCF_Line: 'GGA+U NSCF Line'>}"
mp-766092,Li2 V2 Cr2 P4 O16 F4,1.242,"{'mp-802338': <CalcType.GGA_U_Static: 'GGA+U Static'>, 'mp-767464': <CalcType.GGA_U_Structure_Optimization: 'GGA+U Structure Optimization'>, 'mp-809658': <CalcType.GGA_U_NSCF_Line: 'GGA+U NSCF Line'>, 'mp-766092': <CalcType.GGA_Structure_Optimization: 'GGA Structure Optimization'>, 'mp-883702': <CalcType.GGA_Static: 'GGA Static'>, 'mp-1339993': <CalcType.GGA_U_Static: 'GGA+U Static'>, 'mp-1838307': <CalcType.GGA_U_Static: 'GGA+U Static'>, 'mp-809898': <CalcType.GGA_U_NSCF_Line: 'GGA+U NSCF Line'>}"
mp-760143,Li4 V2 Cr2 P4 O16 F4,2.1106,"{'mp-804824': <CalcType.GGA_U_NSCF_Line: 'GGA+U NSCF Line'>, 'mp-763877': <CalcType.GGA_U_Structure_Optimization: 'GGA+U Structure Optimization'>, 'mp-800198': <CalcType.GGA_U_Static: 'GGA+U Static'>, 'mp-760143': <CalcType.GGA_Structure_Optimization: 'GGA Structure Optimization'>, 'mp-881369': <CalcType.GGA_Static: 'GGA Static'>, 'mp-1340327': <CalcType.GGA_U_Static: 'GGA+U Static'>, 'mp-1839864': <CalcType.GGA_U_Static: 'GGA+U Static'>, 'mp-806340': <CalcType.GGA_U_NSCF_Line: 'GGA+U NSCF Line'>}"
mp-764571,Li4 V2 Fe2 P4 O16 F4,1.7139000000000002,"{'mp-764571': <CalcType.GGA_U_Structure_Optimization: 'GGA+U Structure Optimization'>, 'mp-800348': <CalcType.GGA_U_NSCF_Line: 'GGA+U NSCF Line'>, 'mp-799670': <CalcType.GGA_U_Static: 'GGA+U Static'>, 'mp-1339650': <CalcType.GGA_U_Static: 'GGA+U Static'>, 'mp-1655589': <CalcType.GGA_U_Static: 'GGA+U Static'>, 'mp-1840700': <CalcType.GGA_U_Static: 'GGA+U Static'>, 'mp-806471': <CalcType.GGA_U_NSCF_Line: 'GGA+U NSCF Line'>}"
mp-764581,Li6 V3 Fe3 P6 O24 F6,0.0,"{'mp-764581': <CalcType.GGA_U_Structure_Optimization: 'GGA+U Structure Optimization'>, 'mp-1352893': <CalcType.GGA_U_Static: 'GGA+U Static'>, 'mp-1658003': <CalcType.GGA_U_Static: 'GGA+U Static'>, 'mp-1684591': <CalcType.GGA_U_NSCF_Uniform: 'GGA+U NSCF Uniform'>, 'mp-1883457': <CalcType.GGA_U_Static: 'GGA+U Static'>}"
mp-766001,Li2 V2 Cr2 P4 O16 F4,1.3971,"{'mp-767689': <CalcType.GGA_U_Structure_Optimization: 'GGA+U Structure Optimization'>, 'mp-802441': <CalcType.GGA_U_Static: 'GGA+U Static'>, 'mp-809989': <CalcType.GGA_U_NSCF_Line: 'GGA+U NSCF Line'>, 'mp-766001': <CalcType.GGA_Structure_Optimization: 'GGA Structure Optimization'>, 'mp-1377872': <CalcType.GGA_U_Static: 'GGA+U Static'>, 'mp-1839119': <CalcType.GGA_U_Static: 'GGA+U Static'>, 'mp-810715': <CalcType.GGA_U_NSCF_Line: 'GGA+U NSCF Line'>}"
mp-766016,Li2 V2 Cr2 P4 O16 F4,1.2931,"{'mp-802446': <CalcType.GGA_U_Static: 'GGA+U Static'>, 'mp-767700': <CalcType.GGA_U_Structure_Optimization: 'GGA+U Structure Optimization'>, 'mp-809997': <CalcType.GGA_U_NSCF_Line: 'GGA+U NSCF Line'>, 'mp-766016': <CalcType.GGA_Structure_Optimization: 'GGA Structure Optimization'>, 'mp-1375690': <CalcType.GGA_U_Static: 'GGA+U Static'>, 'mp-1841626': <CalcType.GGA_U_Static: 'GGA+U Static'>, 'mp-810714': <CalcType.GGA_U_NSCF_Line: 'GGA+U NSCF Line'>}"
mp-767223,Li2 V2 Cr2 P4 O16 F4,1.1529999999999991,"{'mp-767223': <CalcType.GGA_U_Structure_Optimization: 'GGA+U Structure Optimization'>, 'mp-802188': <CalcType.GGA_U_Static: 'GGA+U Static'>, 'mp-809513': <CalcType.GGA_U_NSCF_Line: 'GGA+U NSCF Line'>, 'mp-1371229': <CalcType.GGA_U_Static: 'GGA+U Static'>, 'mp-1842820': <CalcType.GGA_U_Static: 'GGA+U Static'>, 'mp-809779': <CalcType.GGA_U_NSCF_Line: 'GGA+U NSCF Line'>}"
mp-776480,Li4 Mn2 V2 P4 O16 F4,0.01,"{'mp-792971': <CalcType.GGA_U_Structure_Optimization: 'GGA+U Structure Optimization'>, 'mp-817684': <CalcType.GGA_U_NSCF_Line: 'GGA+U NSCF Line'>, 'mp-807968': <CalcType.GGA_U_Static: 'GGA+U Static'>, 'mp-776480': <CalcType.GGA_Structure_Optimization: 'GGA Structure Optimization'>, 'mp-1356185': <CalcType.GGA_U_Static: 'GGA+U Static'>, 'mp-1842684': <CalcType.GGA_U_Static: 'GGA+U Static'>, 'mp-818742': <CalcType.GGA_U_NSCF_Line: 'GGA+U NSCF Line'>}"
mp-776446,Li6 Mn3 V3 P6 O24 F6,0.5817,"{'mp-808008': <CalcType.GGA_U_Static: 'GGA+U Static'>, 'mp-776709': <CalcType.GGA_U_Structure_Optimization: 'GGA+U Structure Optimization'>, 'mp-814788': <CalcType.GGA_U_NSCF_Line: 'GGA+U NSCF Line'>, 'mp-776446': <CalcType.GGA_Structure_Optimization: 'GGA Structure Optimization'>, 'mp-1352549': <CalcType.GGA_U_Static: 'GGA+U Static'>, 'mp-1681868': <CalcType.GGA_U_NSCF_Uniform: 'GGA+U NSCF Uniform'>, 'mp-1872915': <CalcType.GGA_U_Static: 'GGA+U Static'>, 'mp-815566': <CalcType.GGA_U_NSCF_Line: 'GGA+U NSCF Line'>}"
mp-776477,Li6 Mn3 V3 P6 O24 F6,0.694299999999999,"{'mp-777203': <CalcType.GGA_U_Structure_Optimization: 'GGA+U Structure Optimization'>, 'mp-815157': <CalcType.GGA_U_NSCF_Line: 'GGA+U NSCF Line'>, 'mp-805999': <CalcType.GGA_U_Static: 'GGA+U Static'>, 'mp-776477': <CalcType.GGA_Structure_Optimization: 'GGA Structure Optimization'>, 'mp-1352046': <CalcType.GGA_U_Static: 'GGA+U Static'>, 'mp-1683680': <CalcType.GGA_U_NSCF_Uniform: 'GGA+U NSCF Uniform'>, 'mp-1881130': <CalcType.GGA_U_Static: 'GGA+U Static'>, 'mp-815938': <CalcType.GGA_U_NSCF_Line: 'GGA+U NSCF Line'>}"
mp-776449,Li4 Mn2 V2 P4 O16 F4,0.5102,"{'mp-777197': <CalcType.GGA_U_Structure_Optimization: 'GGA+U Structure Optimization'>, 'mp-808004': <CalcType.GGA_U_Static: 'GGA+U Static'>, 'mp-815053': <CalcType.GGA_U_NSCF_Line: 'GGA+U NSCF Line'>, 'mp-776449': <CalcType.GGA_Structure_Optimization: 'GGA Structure Optimization'>, 'mp-1370666': <CalcType.GGA_U_Static: 'GGA+U Static'>, 'mp-1838795': <CalcType.GGA_U_Static: 'GGA+U Static'>, 'mp-815786': <CalcType.GGA_U_NSCF_Line: 'GGA+U NSCF Line'>}"
mp-776504,Li6 Mn3 V3 P6 O24 F6,0.074699999999999,"{'mp-1177886': <CalcType.GGA_U_Structure_Optimization: 'GGA+U Structure Optimization'>, 'mp-776504': <CalcType.GGA_Structure_Optimization: 'GGA Structure Optimization'>, 'mp-1351486': <CalcType.GGA_U_Static: 'GGA+U Static'>, 'mp-1680692': <CalcType.GGA_U_NSCF_Uniform: 'GGA+U NSCF Uniform'>, 'mp-1933089': <CalcType.GGA_U_Static: 'GGA+U Static'>}"