Material ID,Composition,Band Gap,Calc Types
mp-745107,Ca4 Mn2 Al4 Si6 H2 O26,1.192,"{'mp-745107': <CalcType.GGA_U_Structure_Optimization: 'GGA+U Structure Optimization'>, 'mp-796728': <CalcType.GGA_U_Static: 'GGA+U Static'>, 'mp-797538': <CalcType.GGA_U_NSCF_Line: 'GGA+U NSCF Line'>, 'mp-1133966': <CalcType.GGA_U_Structure_Optimization: 'GGA+U Structure Optimization'>, 'mp-1250164': <CalcType.GGA_U_NMR_Electric_Field_Gradient: 'GGA+U NMR Electric Field Gradient'>, 'mp-1255204': <CalcType.GGA_U_Structure_Optimization: 'GGA+U Structure Optimization'>, 'mp-1256808': <CalcType.GGA_U_NMR_Nuclear_Shielding: 'GGA+U NMR Nuclear Shielding'>, 'mp-1262616': <CalcType.GGA_U_NMR_Nuclear_Shielding: 'GGA+U NMR Nuclear Shielding'>, 'mp-1262847': <CalcType.GGA_U_Structure_Optimization: 'GGA+U Structure Optimization'>, 'mp-1264195': <CalcType.GGA_U_NMR_Electric_Field_Gradient: 'GGA+U NMR Electric Field Gradient'>, 'mp-878950': <CalcType.GGA_Static: 'GGA Static'>, 'mp-1348290': <CalcType.GGA_U_Static: 'GGA+U Static'>, 'mp-1819253': <CalcType.GGA_U_Static: 'GGA+U Static'>}"
mp-1211795,K2 Na2 Si10 Sn2 W6 O26,0.592599999999999,"{'mp-1211795': <CalcType.GGA_U_Structure_Optimization: 'GGA+U Structure Optimization'>, 'mp-1353050': <CalcType.GGA_U_Static: 'GGA+U Static'>, 'mp-1886642': <CalcType.GGA_U_Static: 'GGA+U Static'>}"
mp-1197878,Sm4 P8 H64 C24 N4 O52,3.6671,"{'mp-1197878': <CalcType.GGA_Structure_Optimization: 'GGA Structure Optimization'>, 'mp-1366039': <CalcType.GGA_Static: 'GGA Static'>}"
mp-1198886,U4 P8 H60 C20 N4 O52,2.5868,"{'mp-1198886': <CalcType.GGA_Structure_Optimization: 'GGA Structure Optimization'>, 'mp-1334576': <CalcType.GGA_Static: 'GGA Static'>}"
mp-709326,Zn12 P12 H40 C8 N4 O52,0.7487,"{'mp-728471': <CalcType.GGA_Static: 'GGA Static'>, 'mp-709326': <CalcType.GGA_Structure_Optimization: 'GGA Structure Optimization'>, 'mp-1338726': <CalcType.GGA_Static: 'GGA Static'>}"
mp-721128,Ga12 P12 H24 C8 N4 O52,0.5648999999999991,"{'mp-721128': <CalcType.GGA_Structure_Optimization: 'GGA Structure Optimization'>, 'mp-733874': <CalcType.GGA_Static: 'GGA Static'>, 'mp-1181580': <CalcType.GGA_Structure_Optimization: 'GGA Structure Optimization'>, 'mp-1366297': <CalcType.GGA_Static: 'GGA Static'>}"
mp-736581,Zn16 P12 H40 C8 N4 O52,3.8877,"{'mp-745993': <CalcType.GGA_Static: 'GGA Static'>, 'mp-849005': <CalcType.GGA_NSCF_Line: 'GGA NSCF Line'>, 'mp-736581': <CalcType.GGA_Structure_Optimization: 'GGA Structure Optimization'>, 'mp-1337963': <CalcType.GGA_Static: 'GGA Static'>, 'mp-750992': <CalcType.GGA_NSCF_Line: 'GGA NSCF Line'>}"
mp-772922,Al12 P12 H36 C8 N4 O52,5.31,"{'mp-772922': <CalcType.GGA_Structure_Optimization: 'GGA Structure Optimization'>, 'mp-862060': <CalcType.GGA_NSCF_Line: 'GGA NSCF Line'>, 'mp-853340': <CalcType.GGA_Static: 'GGA Static'>, 'mp-1256284': <CalcType.GGA_NMR_Electric_Field_Gradient: 'GGA NMR Electric Field Gradient'>, 'mp-1258861': <CalcType.GGA_NMR_Nuclear_Shielding: 'GGA NMR Nuclear Shielding'>, 'mp-1267262': <CalcType.GGA_Structure_Optimization: 'GGA Structure Optimization'>, 'mp-1335597': <CalcType.GGA_Static: 'GGA Static'>, 'mp-996093': <CalcType.GGA_NSCF_Line: 'GGA NSCF Line'>}"
mp-1201642,Be12 As12 H36 C20 N4 O52,0.0,"{'mp-1201642': <CalcType.GGA_Structure_Optimization: 'GGA Structure Optimization'>, 'mp-1985250': <CalcType.GGA_Static: 'GGA Static'>}"
mp-540575,Zn2 Hg4 H28 C8 N12 O26,3.4437,"{'mp-727146': <CalcType.GGA_Static: 'GGA Static'>, 'mp-860155': <CalcType.GGA_NSCF_Line: 'GGA NSCF Line'>, 'mp-540575': <CalcType.GGA_Structure_Optimization: 'GGA Structure Optimization'>, 'mp-1365404': <CalcType.GGA_Static: 'GGA Static'>, 'mp-1849010': <CalcType.GGA_Static: 'GGA Static'>, 'mp-748028': <CalcType.GGA_NSCF_Line: 'GGA NSCF Line'>, 'mp-860739': <CalcType.GGA_NSCF_Line: 'GGA NSCF Line'>}"
mp-722353,U2 H24 C4 S4 N12 O26,0.14879999999999902,"{'mp-722353': <CalcType.GGA_Structure_Optimization: 'GGA Structure Optimization'>, 'mp-951587': <CalcType.GGA_Static: 'GGA Static'>, 'mp-955618': <CalcType.GGA_NSCF_Line: 'GGA NSCF Line'>, 'mp-956366': <CalcType.GGA_NSCF_Line: 'GGA NSCF Line'>, 'mp-1353684': <CalcType.GGA_Static: 'GGA Static'>, 'mp-1874636': <CalcType.GGA_Static: 'GGA Static'>}"
mp-559534,Ba10 Al4 In4 Ir2 Cl2 O26,0.0,"{'mp-931659': <CalcType.GGA_NSCF_Line: 'GGA NSCF Line'>, 'mp-916318': <CalcType.GGA_Static: 'GGA Static'>, 'mp-933468': <CalcType.GGA_NSCF_Line: 'GGA NSCF Line'>, 'mp-559534': <CalcType.GGA_Structure_Optimization: 'GGA Structure Optimization'>, 'mp-1257949': <CalcType.GGA_NMR_Electric_Field_Gradient: 'GGA NMR Electric Field Gradient'>, 'mp-1260100': <CalcType.GGA_NMR_Nuclear_Shielding: 'GGA NMR Nuclear Shielding'>, 'mp-1265880': <CalcType.GGA_Structure_Optimization: 'GGA Structure Optimization'>, 'mp-1375659': <CalcType.GGA_Static: 'GGA Static'>, 'mp-1891836': <CalcType.GGA_Static: 'GGA Static'>}"
mp-1201658,Mn2 Al4 P4 H20 O26 F4,4.582199999999999,"{'mp-1201658': <CalcType.GGA_U_Structure_Optimization: 'GGA+U Structure Optimization'>, 'mp-1892972': <CalcType.GGA_U_Static: 'GGA+U Static'>, 'mp-1986329': <CalcType.GGA_U_Static: 'GGA+U Static'>}"
mp-1204548,Ca8 Al4 P4 H20 O26 F16,5.421900000000001,"{'mp-1204548': <CalcType.GGA_Structure_Optimization: 'GGA Structure Optimization'>, 'mp-1897521': <CalcType.GGA_Static: 'GGA Static'>, 'mp-1986040': <CalcType.GGA_Static: 'GGA Static'>}"
mp-1214713,Ba4 Ti2 Mn4 Si4 P2 O26,0.0,"{'mp-1214713': <CalcType.GGA_U_Structure_Optimization: 'GGA+U Structure Optimization'>, 'mp-1380339': <CalcType.GGA_U_Static: 'GGA+U Static'>, 'mp-1769806': <CalcType.GGA_U_Static: 'GGA+U Static'>, 'mp-1893359': <CalcType.GGA_U_Static: 'GGA+U Static'>}"
mp-1325679,Pu2 Co2 H48 C8 N12 O26,0.048799999999999004,{'mp-1325679': <CalcType.GGA_U_Static: 'GGA+U Static'>}
mp-43114,Ca6 Ti2 Al4 Si6 O26 F4,3.1603,"{'mp-725126': <CalcType.GGA_Static: 'GGA Static'>, 'mp-736371': <CalcType.GGA_NSCF_Line: 'GGA NSCF Line'>, 'mp-43114': <CalcType.GGA_Structure_Optimization: 'GGA Structure Optimization'>, 'mp-1134131': <CalcType.GGA_Structure_Optimization: 'GGA Structure Optimization'>, 'mp-1250820': <CalcType.GGA_Structure_Optimization: 'GGA Structure Optimization'>, 'mp-1258306': <CalcType.GGA_NMR_Nuclear_Shielding: 'GGA NMR Nuclear Shielding'>, 'mp-1260194': <CalcType.GGA_NMR_Electric_Field_Gradient: 'GGA NMR Electric Field Gradient'>, 'mp-1266241': <CalcType.GGA_Structure_Optimization: 'GGA Structure Optimization'>, 'mp-1267837': <CalcType.GGA_NMR_Electric_Field_Gradient: 'GGA NMR Electric Field Gradient'>, 'mp-1267886': <CalcType.GGA_NMR_Nuclear_Shielding: 'GGA NMR Nuclear Shielding'>, 'mp-1353094': <CalcType.GGA_Static: 'GGA Static'>, 'mp-1926229': <CalcType.GGA_Static: 'GGA Static'>, 'mp-746289': <CalcType.GGA_NSCF_Line: 'GGA NSCF Line'>}"
mp-727288,V4 H80 C8 S8 N24 O52,3.0467,"{'mp-744098': <CalcType.GGA_U_Structure_Optimization: 'GGA+U Structure Optimization'>, 'mp-807745': <CalcType.GGA_U_Static: 'GGA+U Static'>, 'mp-727288': <CalcType.GGA_Static: 'GGA Static'>, 'mp-1333639': <CalcType.GGA_U_Static: 'GGA+U Static'>}"
mp-729906,Pu2 Co2 H48 C8 N12 O26,0.8905000000000001,"{'mp-744896': <CalcType.GGA_U_Structure_Optimization: 'GGA+U Structure Optimization'>, 'mp-729906': <CalcType.GGA_Static: 'GGA Static'>, 'mp-1894391': <CalcType.GGA_U_Static: 'GGA+U Static'>}"
mp-766416,K4 U2 H12 C4 S2 O26,1.7159,"{'mp-766416': <CalcType.GGA_Structure_Optimization: 'GGA Structure Optimization'>, 'mp-852505': <CalcType.GGA_Static: 'GGA Static'>, 'mp-855350': <CalcType.GGA_NSCF_Line: 'GGA NSCF Line'>, 'mp-1378788': <CalcType.GGA_Static: 'GGA Static'>, 'mp-1885478': <CalcType.GGA_Static: 'GGA Static'>, 'mp-855873': <CalcType.GGA_NSCF_Line: 'GGA NSCF Line'>}"
mp-1173717,Na8 Al6 Si6 C2 N2 O26,4.369400000000001,"{'mp-1173717': <CalcType.GGA_Structure_Optimization: 'GGA Structure Optimization'>, 'mp-1352403': <CalcType.GGA_Static: 'GGA Static'>, 'mp-1936109': <CalcType.GGA_Static: 'GGA Static'>}"
mp-1205066,K4 Fe4 H16 C8 Cl4 O26,2.2251,"{'mp-1205066': <CalcType.GGA_U_Structure_Optimization: 'GGA+U Structure Optimization'>, 'mp-1920109': <CalcType.GGA_U_Static: 'GGA+U Static'>, 'mp-1986118': <CalcType.GGA_U_Static: 'GGA+U Static'>}"
mp-1202100,Al24 P24 H56 C8 N8 O104,5.2435,{'mp-1202100': <CalcType.GGA_Structure_Optimization: 'GGA Structure Optimization'>}
mp-1203908,Ga24 P24 H48 C8 N8 O104,0.5217,{'mp-1203908': <CalcType.GGA_Structure_Optimization: 'GGA Structure Optimization'>}
mp-1204696,Al24 P24 H64 C16 N8 O104,0.955399999999999,{'mp-1204696': <CalcType.GGA_Structure_Optimization: 'GGA Structure Optimization'>}
mp-1181947,Mg12 B8 H36 S4 O52 F4,4.2701,"{'mp-1181947': <CalcType.GGA_Structure_Optimization: 'GGA Structure Optimization'>, 'mp-1338495': <CalcType.GGA_Static: 'GGA Static'>, 'mp-1845011': <CalcType.GGA_Static: 'GGA Static'>}"
mp-707774,Mg12 B8 H36 S4 O52 F4,0.702399999999999,"{'mp-728928': <CalcType.GGA_Static: 'GGA Static'>, 'mp-707774': <CalcType.GGA_Structure_Optimization: 'GGA Structure Optimization'>, 'mp-999625': <CalcType.GGA_NSCF_Line: 'GGA NSCF Line'>, 'mp-1335014': <CalcType.GGA_Static: 'GGA Static'>, 'mp-1844667': <CalcType.GGA_Static: 'GGA Static'>, 'mp-1006843': <CalcType.GGA_NSCF_Line: 'GGA NSCF Line'>}"
mp-709352,Na8 Sc8 P16 H48 C16 O52,0.0,"{'mp-709352': <CalcType.GGA_Structure_Optimization: 'GGA Structure Optimization'>, 'mp-729151': <CalcType.GGA_Static: 'GGA Static'>, 'mp-864254': <CalcType.GGA_NSCF_Line: 'GGA NSCF Line'>, 'mp-1337907': <CalcType.GGA_Static: 'GGA Static'>}"
mp-1101665,Na2 Li10 Fe4 P4 C4 O28,3.1758,"{'mp-1101665': <CalcType.GGA_U_Structure_Optimization: 'GGA+U Structure Optimization'>, 'mp-1348949': <CalcType.GGA_U_Static: 'GGA+U Static'>, 'mp-1679839': <CalcType.GGA_U_NSCF_Uniform: 'GGA+U NSCF Uniform'>, 'mp-1890979': <CalcType.GGA_U_Static: 'GGA+U Static'>}"
mp-1176362,Na6 Li6 Fe4 P4 C4 O28,3.917499999999999,"{'mp-1176362': <CalcType.GGA_U_Structure_Optimization: 'GGA+U Structure Optimization'>, 'mp-1352472': <CalcType.GGA_U_Static: 'GGA+U Static'>, 'mp-1879006': <CalcType.GGA_U_Static: 'GGA+U Static'>}"
mp-1176351,Na3 Li3 Fe2 P2 C2 O14,3.8891,"{'mp-1176351': <CalcType.GGA_U_Structure_Optimization: 'GGA+U Structure Optimization'>, 'mp-1346548': <CalcType.GGA_U_Static: 'GGA+U Static'>, 'mp-1806027': <CalcType.GGA_U_Static: 'GGA+U Static'>}"
mp-1176354,Na6 Li6 Fe4 P4 C4 O28,3.9236,"{'mp-1176354': <CalcType.GGA_U_Structure_Optimization: 'GGA+U Structure Optimization'>, 'mp-1353158': <CalcType.GGA_U_Static: 'GGA+U Static'>, 'mp-1884243': <CalcType.GGA_U_Static: 'GGA+U Static'>}"
mp-1176367,Na6 Li6 Mn4 P4 C4 O28,3.442599999999999,"{'mp-1176367': <CalcType.GGA_U_Structure_Optimization: 'GGA+U Structure Optimization'>, 'mp-1351018': <CalcType.GGA_U_Static: 'GGA+U Static'>, 'mp-1892328': <CalcType.GGA_U_Static: 'GGA+U Static'>}"
mp-1173215,Sr4 Ca1 Y1 Ga2 Cu4 O14,0.32580000000000003,"{'mp-1173215': <CalcType.GGA_Structure_Optimization: 'GGA Structure Optimization'>, 'mp-1342817': <CalcType.GGA_Static: 'GGA Static'>, 'mp-1680484': <CalcType.GGA_NSCF_Uniform: 'GGA NSCF Uniform'>, 'mp-1819861': <CalcType.GGA_Static: 'GGA Static'>}"
mp-1176364,Na6 Li6 Fe4 P4 C4 O28,1.103999999999999,"{'mp-1176364': <CalcType.GGA_U_Structure_Optimization: 'GGA+U Structure Optimization'>, 'mp-1350587': <CalcType.GGA_U_Static: 'GGA+U Static'>, 'mp-1887748': <CalcType.GGA_U_Static: 'GGA+U Static'>, 'mp-1681710': <CalcType.GGA_U_NSCF_Uniform: 'GGA+U NSCF Uniform'>}"
mp-1176585,Na10 Li2 Fe4 P4 C4 O28,3.5469,"{'mp-1176585': <CalcType.GGA_U_Structure_Optimization: 'GGA+U Structure Optimization'>, 'mp-1352173': <CalcType.GGA_U_Static: 'GGA+U Static'>, 'mp-1936992': <CalcType.GGA_U_Static: 'GGA+U Static'>}"
mp-1101651,Na2 Li10 Fe4 P4 C4 O28,0.0,"{'mp-1101651': <CalcType.GGA_U_Structure_Optimization: 'GGA+U Structure Optimization'>, 'mp-1352436': <CalcType.GGA_U_Static: 'GGA+U Static'>, 'mp-1682360': <CalcType.GGA_U_NSCF_Uniform: 'GGA+U NSCF Uniform'>, 'mp-1892571': <CalcType.GGA_U_Static: 'GGA+U Static'>}"
mp-1176343,Na10 Li2 Fe4 P4 C4 O28,3.6433,"{'mp-1176343': <CalcType.GGA_U_Structure_Optimization: 'GGA+U Structure Optimization'>, 'mp-1351076': <CalcType.GGA_U_Static: 'GGA+U Static'>, 'mp-1889396': <CalcType.GGA_U_Static: 'GGA+U Static'>}"
mp-1221128,Na1 Ca3 Mg1 Fe1 Si4 O14,3.132,"{'mp-1221128': <CalcType.GGA_U_Structure_Optimization: 'GGA+U Structure Optimization'>, 'mp-1377367': <CalcType.GGA_U_Static: 'GGA+U Static'>, 'mp-1811830': <CalcType.GGA_U_Static: 'GGA+U Static'>}"
mp-1233498,K2 Mg1 Mn1 H4 I4 O14,2.0208,{'mp-1233498': <CalcType.GGA_U_Structure_Optimization: 'GGA+U Structure Optimization'>}
mp-1233062,Ba1 Mg1 Al3 P2 H2 O14,0.5051999999999991,"{'mp-1233062': <CalcType.GGA_Static: 'GGA Static'>, 'mp-1233231': <CalcType.GGA_Structure_Optimization: 'GGA Structure Optimization'>}"
mp-1227719,Ca8 Al6 Cr2 Si2 B2 O28,2.519799999999999,"{'mp-1227719': <CalcType.GGA_U_Structure_Optimization: 'GGA+U Structure Optimization'>, 'mp-1346145': <CalcType.GGA_U_Static: 'GGA+U Static'>, 'mp-1580019': <CalcType.GGA_U_Structure_Optimization: 'GGA+U Structure Optimization'>, 'mp-1577945': <CalcType.GGA_U_Static: 'GGA+U Static'>, 'mp-1646343': <CalcType.GGA_U_Structure_Optimization: 'GGA+U Structure Optimization'>, 'mp-1643203': <CalcType.GGA_U_Static: 'GGA+U Static'>, 'mp-1651251': <CalcType.GGA_U_Structure_Optimization: 'GGA+U Structure Optimization'>, 'mp-1651956': <CalcType.GGA_U_Static: 'GGA+U Static'>, 'mp-1654101': <CalcType.GGA_U_Static: 'GGA+U Static'>, 'mp-1647088': <CalcType.GGA_U_Structure_Optimization: 'GGA+U Structure Optimization'>, 'mp-1644402': <CalcType.GGA_U_Static: 'GGA+U Static'>, 'mp-1666322': <CalcType.GGA_U_Static: 'GGA+U Static'>, 'mp-1667429': <CalcType.GGA_U_Structure_Optimization: 'GGA+U Structure Optimization'>, 'mp-1987010': <CalcType.GGA_U_Static: 'GGA+U Static'>, 'mp-1986696': <CalcType.GGA_U_Static: 'GGA+U Static'>, 'mp-1983068': <CalcType.GGA_U_Static: 'GGA+U Static'>, 'mp-1981584': <CalcType.GGA_U_Static: 'GGA+U Static'>, 'mp-1986949': <CalcType.GGA_U_Static: 'GGA+U Static'>, 'mp-1680964': <CalcType.GGA_U_NSCF_Uniform: 'GGA+U NSCF Uniform'>}"
mp-1234075,K2 Mg1 Nb2 P2 C2 O14,0.047400000000000005,{'mp-1234075': <CalcType.GGA_Structure_Optimization: 'GGA Structure Optimization'>}
mp-1234089,K2 Mg1 Nb2 P2 C2 O14,0.113099999999999,"{'mp-1234089': <CalcType.GGA_Structure_Optimization: 'GGA Structure Optimization'>, 'mp-1234596': <CalcType.GGA_Static: 'GGA Static'>}"
mp-1235408,K2 Li1 Nb2 P2 C2 O14,0.06760000000000001,"{'mp-1235408': <CalcType.GGA_Static: 'GGA Static'>, 'mp-1235572': <CalcType.GGA_Structure_Optimization: 'GGA Structure Optimization'>}"
mp-1235953,K2 Li1 Nb2 P2 C2 O14,0.0291,"{'mp-1235953': <CalcType.GGA_Static: 'GGA Static'>, 'mp-1236688': <CalcType.GGA_Structure_Optimization: 'GGA Structure Optimization'>}"
mp-1235984,Ba1 Li1 Al3 P2 H2 O14,3.0738,"{'mp-1235984': <CalcType.GGA_Static: 'GGA Static'>, 'mp-1236004': <CalcType.GGA_Structure_Optimization: 'GGA Structure Optimization'>}"
mp-695635,Li6 Al6 P6 H4 O28 F2,5.7714,"{'mp-695635': <CalcType.GGA_Structure_Optimization: 'GGA Structure Optimization'>, 'mp-725486': <CalcType.GGA_Static: 'GGA Static'>, 'mp-738913': <CalcType.GGA_NSCF_Line: 'GGA NSCF Line'>, 'mp-1254957': <CalcType.GGA_NMR_Nuclear_Shielding: 'GGA NMR Nuclear Shielding'>, 'mp-1257166': <CalcType.GGA_NMR_Electric_Field_Gradient: 'GGA NMR Electric Field Gradient'>, 'mp-1265436': <CalcType.GGA_Structure_Optimization: 'GGA Structure Optimization'>, 'mp-1350171': <CalcType.GGA_Static: 'GGA Static'>, 'mp-746709': <CalcType.GGA_NSCF_Line: 'GGA NSCF Line'>, 'mp-1679158': <CalcType.GGA_NSCF_Uniform: 'GGA NSCF Uniform'>, 'mp-1824541': <CalcType.GGA_Static: 'GGA Static'>}"
mp-768850,Na5 Li1 Co2 P2 C2 O14,2.6862,"{'mp-770326': <CalcType.GGA_U_Structure_Optimization: 'GGA+U Structure Optimization'>, 'mp-803213': <CalcType.GGA_U_Static: 'GGA+U Static'>, 'mp-811275': <CalcType.GGA_U_NSCF_Line: 'GGA+U NSCF Line'>, 'mp-768850': <CalcType.GGA_Structure_Optimization: 'GGA Structure Optimization'>, 'mp-1344406': <CalcType.GGA_U_Static: 'GGA+U Static'>, 'mp-812061': <CalcType.GGA_U_NSCF_Line: 'GGA+U NSCF Line'>, 'mp-1578649': <CalcType.GGA_U_Structure_Optimization: 'GGA+U Structure Optimization'>, 'mp-1653298': <CalcType.GGA_U_Static: 'GGA+U Static'>, 'mp-1650293': <CalcType.GGA_U_Structure_Optimization: 'GGA+U Structure Optimization'>, 'mp-1652062': <CalcType.GGA_U_Static: 'GGA+U Static'>, 'mp-1651717': <CalcType.GGA_U_Static: 'GGA+U Static'>, 'mp-1652786': <CalcType.GGA_U_Structure_Optimization: 'GGA+U Structure Optimization'>, 'mp-1653151': <CalcType.GGA_U_Static: 'GGA+U Static'>, 'mp-1651736': <CalcType.GGA_U_Static: 'GGA+U Static'>, 'mp-1653325': <CalcType.GGA_U_Structure_Optimization: 'GGA+U Structure Optimization'>, 'mp-1654034': <CalcType.GGA_U_Static: 'GGA+U Static'>, 'mp-1650504': <CalcType.GGA_U_Structure_Optimization: 'GGA+U Structure Optimization'>, 'mp-1653347': <CalcType.GGA_U_Static: 'GGA+U Static'>, 'mp-1652287': <CalcType.GGA_U_Structure_Optimization: 'GGA+U Structure Optimization'>, 'mp-1654056': <CalcType.GGA_U_Static: 'GGA+U Static'>, 'mp-1650692': <CalcType.GGA_U_Static: 'GGA+U Static'>, 'mp-1653892': <CalcType.GGA_U_Structure_Optimization: 'GGA+U Structure Optimization'>, 'mp-1652124': <CalcType.GGA_U_Structure_Optimization: 'GGA+U Structure Optimization'>, 'mp-1653026': <CalcType.GGA_U_Static: 'GGA+U Static'>, 'mp-1650008': <CalcType.GGA_U_Structure_Optimization: 'GGA+U Structure Optimization'>, 'mp-1654264': <CalcType.GGA_U_Structure_Optimization: 'GGA+U Structure Optimization'>, 'mp-1650038': <CalcType.GGA_U_Structure_Optimization: 'GGA+U Structure Optimization'>, 'mp-1654289': <CalcType.GGA_U_Static: 'GGA+U Static'>, 'mp-1652355': <CalcType.GGA_U_Static: 'GGA+U Static'>, 'mp-1652000': <CalcType.GGA_U_Structure_Optimization: 'GGA+U Structure Optimization'>, 'mp-1653771': <CalcType.GGA_U_Structure_Optimization: 'GGA+U Structure Optimization'>, 'mp-1666462': <CalcType.GGA_U_Static: 'GGA+U Static'>, 'mp-1667831': <CalcType.GGA_U_Structure_Optimization: 'GGA+U Structure Optimization'>, 'mp-1982351': <CalcType.GGA_U_Static: 'GGA+U Static'>, 'mp-1979203': <CalcType.GGA_U_Static: 'GGA+U Static'>, 'mp-1979215': <CalcType.GGA_U_Static: 'GGA+U Static'>, 'mp-1986697': <CalcType.GGA_U_Static: 'GGA+U Static'>, 'mp-1982448': <CalcType.GGA_U_Static: 'GGA+U Static'>, 'mp-1985804': <CalcType.GGA_U_Static: 'GGA+U Static'>, 'mp-1982511': <CalcType.GGA_U_Static: 'GGA+U Static'>, 'mp-1986484': <CalcType.GGA_U_Static: 'GGA+U Static'>, 'mp-1985830': <CalcType.GGA_U_Static: 'GGA+U Static'>, 'mp-1986517': <CalcType.GGA_U_Static: 'GGA+U Static'>, 'mp-1984976': <CalcType.GGA_U_Static: 'GGA+U Static'>, 'mp-1983990': <CalcType.GGA_U_Static: 'GGA+U Static'>, 'mp-1987886': <CalcType.GGA_U_Static: 'GGA+U Static'>}"