Material ID,Composition,Band Gap,Calc Types
mp-2713290,Na12 Hf6 Mg6 P12 S6 O72,4.5333,{'mp-2713290': <CalcType.GGA_Structure_Optimization: 'GGA Structure Optimization'>}
mp-2713293,Na12 Mg6 Si6 Sn6 S12 O72,1.3113000000000001,{'mp-2713293': <CalcType.GGA_Structure_Optimization: 'GGA Structure Optimization'>}
mp-2713305,Na36 Nb12 In12 Si24 P12 O144,2.3234,{'mp-2713305': <CalcType.GGA_Structure_Optimization: 'GGA Structure Optimization'>}
mp-2713323,Na12 Ca6 Si6 Ge6 S12 O72,0.0,{'mp-2713323': <CalcType.GGA_Structure_Optimization: 'GGA Structure Optimization'>}
mp-2713320,Na12 Mg6 Ti6 P12 S6 O72,2.1068,{'mp-2713320': <CalcType.GGA_Structure_Optimization: 'GGA Structure Optimization'>}
mp-2713327,Na12 Ca6 Sn6 P12 S6 O72,1.4886,{'mp-2713327': <CalcType.GGA_Structure_Optimization: 'GGA Structure Optimization'>}
mp-2713389,Na12 Mg6 Al6 P6 S12 O72,4.5534,{'mp-2713389': <CalcType.GGA_Structure_Optimization: 'GGA Structure Optimization'>}
mp-2713360,Na12 Y6 Mg6 P6 S12 O72,4.5446,{'mp-2713360': <CalcType.GGA_Structure_Optimization: 'GGA Structure Optimization'>}
mp-2713404,Na12 Zn6 In6 P6 S12 O72,3.150699999999999,{'mp-2713404': <CalcType.GGA_Structure_Optimization: 'GGA Structure Optimization'>}
mp-2713314,Na12 Hf6 Mg6 Si6 S12 O72,3.6334,{'mp-2713314': <CalcType.GGA_Structure_Optimization: 'GGA Structure Optimization'>}
mp-2713330,Na12 Mg6 Sn6 P12 S6 O72,2.1606,{'mp-2713330': <CalcType.GGA_Structure_Optimization: 'GGA Structure Optimization'>}
mp-2713362,Na12 Ca6 In6 P6 S12 O72,0.498,{'mp-2713362': <CalcType.GGA_Structure_Optimization: 'GGA Structure Optimization'>}
mp-2713456,Na12 Y6 Zn6 P6 S12 O72,3.7691,{'mp-2713456': <CalcType.GGA_Structure_Optimization: 'GGA Structure Optimization'>}
mp-2713444,Na12 Mg6 Sc6 P6 S12 O72,4.1662,{'mp-2713444': <CalcType.GGA_Structure_Optimization: 'GGA Structure Optimization'>}
mp-2713453,Na12 La6 Mg6 P6 S12 O72,4.290900000000001,{'mp-2713453': <CalcType.GGA_Structure_Optimization: 'GGA Structure Optimization'>}
mp-2713495,Na12 La6 Zn6 P6 S12 O72,3.3762,{'mp-2713495': <CalcType.GGA_Structure_Optimization: 'GGA Structure Optimization'>}
mp-2713460,Na12 Ca6 La6 P6 S12 O72,4.3134,{'mp-2713460': <CalcType.GGA_Structure_Optimization: 'GGA Structure Optimization'>}
mp-2713468,Na12 Mg6 Ga6 P6 S12 O72,3.2524,{'mp-2713468': <CalcType.GGA_Structure_Optimization: 'GGA Structure Optimization'>}
mp-2713499,Na12 Ca6 Sc6 P6 S12 O72,3.6282,{'mp-2713499': <CalcType.GGA_Structure_Optimization: 'GGA Structure Optimization'>}
mp-2713488,Na12 Sc6 Zn6 P6 S12 O72,4.0434,{'mp-2713488': <CalcType.GGA_Structure_Optimization: 'GGA Structure Optimization'>}
mp-2713471,Na12 Al6 Zn6 P6 S12 O72,4.310700000000001,{'mp-2713471': <CalcType.GGA_Structure_Optimization: 'GGA Structure Optimization'>}
mp-2713550,Na18 Nb6 In6 Si12 P6 O72,2.252799999999999,{'mp-2713550': <CalcType.GGA_Structure_Optimization: 'GGA Structure Optimization'>}
mp-2713623,Na12 Mg6 Ti6 Si6 S12 O72,1.4069,{'mp-2713623': <CalcType.GGA_Structure_Optimization: 'GGA Structure Optimization'>}
mp-2713644,Na18 Y6 Nb6 Si12 P6 O72,2.2374,{'mp-2713644': <CalcType.GGA_Structure_Optimization: 'GGA Structure Optimization'>}
mp-2713578,Na12 Ti6 Zn6 Si6 S12 O72,1.5062000000000002,{'mp-2713578': <CalcType.GGA_Structure_Optimization: 'GGA Structure Optimization'>}
mp-2713620,Na12 Mg6 Ge6 P12 S6 O72,1.7694,{'mp-2713620': <CalcType.GGA_Structure_Optimization: 'GGA Structure Optimization'>}
mp-2713663,Na12 Zr6 Zn6 Si6 S12 O72,3.0848,{'mp-2713663': <CalcType.GGA_Structure_Optimization: 'GGA Structure Optimization'>}
mp-2713673,Na18 La6 Ta6 Si12 P6 O72,2.6676,{'mp-2713673': <CalcType.GGA_Structure_Optimization: 'GGA Structure Optimization'>}
mp-2713588,Na12 Zn6 Si6 Ge6 S12 O72,0.8459000000000001,{'mp-2713588': <CalcType.GGA_Structure_Optimization: 'GGA Structure Optimization'>}
mp-2713618,Na12 Mg6 Zr6 P12 S6 O72,3.7359,{'mp-2713618': <CalcType.GGA_Structure_Optimization: 'GGA Structure Optimization'>}
mp-2713674,Na12 Hf6 Zn6 P12 S6 O72,4.4174,{'mp-2713674': <CalcType.GGA_Structure_Optimization: 'GGA Structure Optimization'>}
mp-2714281,Na6 Y6 Hf6 Si6 S12 O72,3.7611,{'mp-2714281': <CalcType.GGA_Structure_Optimization: 'GGA Structure Optimization'>}
mp-2714038,Na6 Hf6 Al6 Si6 S12 O72,4.5215,{'mp-2714038': <CalcType.GGA_Structure_Optimization: 'GGA Structure Optimization'>}
mp-2713695,Na12 Mg6 Si6 Ge6 S12 O72,0.7902999999999991,{'mp-2713695': <CalcType.GGA_Structure_Optimization: 'GGA Structure Optimization'>}
mp-2713677,Na12 Zn6 Ge6 P12 S6 O72,1.2947,{'mp-2713677': <CalcType.GGA_Structure_Optimization: 'GGA Structure Optimization'>}
mp-2714155,Na6 Y6 Ge6 P12 S6 O72,1.3392,{'mp-2714155': <CalcType.GGA_Structure_Optimization: 'GGA Structure Optimization'>}
mp-2713679,Na12 Hf6 Zn6 Si6 S12 O72,3.7293000000000003,{'mp-2713679': <CalcType.GGA_Structure_Optimization: 'GGA Structure Optimization'>}
mp-2713689,Na12 Ca6 Ti6 Si6 S12 O72,1.196699999999999,{'mp-2713689': <CalcType.GGA_Structure_Optimization: 'GGA Structure Optimization'>}
mp-2713699,Na12 Ca6 Hf6 P12 S6 O72,4.2675,{'mp-2713699': <CalcType.GGA_Structure_Optimization: 'GGA Structure Optimization'>}
mp-2714324,Na18 Y6 Zr6 Si12 S6 O72,3.9238,{'mp-2714324': <CalcType.GGA_Structure_Optimization: 'GGA Structure Optimization'>}
mp-2713701,Na12 Ca6 Si6 Sn6 S12 O72,0.789,{'mp-2713701': <CalcType.GGA_Structure_Optimization: 'GGA Structure Optimization'>}
mp-2714354,Na24 Mg6 Ti6 Si6 P12 O72,2.0323,{'mp-2714354': <CalcType.GGA_Structure_Optimization: 'GGA Structure Optimization'>}
mp-2714339,Na24 Ca6 Hf6 Si6 P12 O72,3.647199999999999,{'mp-2714339': <CalcType.GGA_Structure_Optimization: 'GGA Structure Optimization'>}
mp-2714343,Na18 In6 Si12 Ge6 S6 O72,1.7953000000000001,{'mp-2714343': <CalcType.GGA_Structure_Optimization: 'GGA Structure Optimization'>}
mp-2714346,Na6 Mg6 Ti6 P6 S12 O72,1.826999999999999,{'mp-2714346': <CalcType.GGA_Structure_Optimization: 'GGA Structure Optimization'>}
mp-2714360,Na24 Ca6 Ti6 Si12 S6 O72,1.9929000000000001,{'mp-2714360': <CalcType.GGA_Structure_Optimization: 'GGA Structure Optimization'>}
mp-2714361,Na24 Zr6 Zn6 Si6 P12 O72,3.611499999999999,{'mp-2714361': <CalcType.GGA_Structure_Optimization: 'GGA Structure Optimization'>}
mp-2714340,Na18 Ga6 Si12 Sn6 S6 O72,2.460999999999999,{'mp-2714340': <CalcType.GGA_Structure_Optimization: 'GGA Structure Optimization'>}
mp-2714330,Na6 Mg6 Sn6 P6 S12 O72,1.953199999999999,{'mp-2714330': <CalcType.GGA_Structure_Optimization: 'GGA Structure Optimization'>}
mp-2714350,Na6 Mg6 Zr6 P6 S12 O72,3.4429,{'mp-2714350': <CalcType.GGA_Structure_Optimization: 'GGA Structure Optimization'>}
mp-2714333,Na18 Al6 Si12 Ge6 S6 O72,2.2743,{'mp-2714333': <CalcType.GGA_Structure_Optimization: 'GGA Structure Optimization'>}
mp-2714357,Na24 Ti6 Zn6 Si6 P12 O72,1.6211000000000002,{'mp-2714357': <CalcType.GGA_Structure_Optimization: 'GGA Structure Optimization'>}
mp-2714373,Na18 Zr6 Al6 Si12 S6 O72,3.9878,{'mp-2714373': <CalcType.GGA_Structure_Optimization: 'GGA Structure Optimization'>}
mp-2714366,Na18 Sc6 Ti6 Si12 S6 O72,2.4676,{'mp-2714366': <CalcType.GGA_Structure_Optimization: 'GGA Structure Optimization'>}
mp-2714377,Na6 Mg6 Ge6 P6 S12 O72,1.3332000000000002,{'mp-2714377': <CalcType.GGA_Structure_Optimization: 'GGA Structure Optimization'>}
mp-2714394,Na18 Hf6 Sc6 Si12 S6 O72,4.209799999999999,{'mp-2714394': <CalcType.GGA_Structure_Optimization: 'GGA Structure Optimization'>}
mp-2714387,Na24 Mg6 Si12 Ge6 S6 O72,1.5535,{'mp-2714387': <CalcType.GGA_Structure_Optimization: 'GGA Structure Optimization'>}
mp-2714382,Na24 Ca6 Si12 Sn6 S6 O72,1.2406,{'mp-2714382': <CalcType.GGA_Structure_Optimization: 'GGA Structure Optimization'>}
mp-2714372,Na18 Ti6 Al6 Si12 S6 O72,2.5827,{'mp-2714372': <CalcType.GGA_Structure_Optimization: 'GGA Structure Optimization'>}
mp-2714367,Na24 Zn6 Si6 Sn6 P12 O72,1.947899999999999,{'mp-2714367': <CalcType.GGA_Structure_Optimization: 'GGA Structure Optimization'>}
mp-2714435,Na24 Zr6 Zn6 Si12 S6 O72,3.2025,{'mp-2714435': <CalcType.GGA_Structure_Optimization: 'GGA Structure Optimization'>}
mp-2714398,Na18 Y6 Si12 Ge6 S6 O72,1.8075,{'mp-2714398': <CalcType.GGA_Structure_Optimization: 'GGA Structure Optimization'>}
mp-2714412,Na24 Mg6 Zr6 Si12 S6 O72,3.548499999999999,{'mp-2714412': <CalcType.GGA_Structure_Optimization: 'GGA Structure Optimization'>}
mp-2714407,Na24 Mg6 Zr6 Si6 P12 O72,3.7154,{'mp-2714407': <CalcType.GGA_Structure_Optimization: 'GGA Structure Optimization'>}
mp-2714404,Na18 Mg6 Nb6 Si12 S6 O72,1.5936,{'mp-2714404': <CalcType.GGA_Structure_Optimization: 'GGA Structure Optimization'>}
mp-2714437,Na18 Ga6 Si12 Ge6 S6 O72,2.147999999999999,{'mp-2714437': <CalcType.GGA_Structure_Optimization: 'GGA Structure Optimization'>}
mp-2714417,Na24 Zn6 Si6 Ge6 P12 O72,1.334,{'mp-2714417': <CalcType.GGA_Structure_Optimization: 'GGA Structure Optimization'>}
mp-2714425,Na18 La6 Si12 Ge6 S6 O72,1.662399999999999,{'mp-2714425': <CalcType.GGA_Structure_Optimization: 'GGA Structure Optimization'>}
mp-2714410,Na18 Y6 Ti6 Si12 S6 O72,2.4153000000000002,{'mp-2714410': <CalcType.GGA_Structure_Optimization: 'GGA Structure Optimization'>}
mp-2714438,Na24 Ca6 Ti6 Si6 P12 O72,1.7569,{'mp-2714438': <CalcType.GGA_Structure_Optimization: 'GGA Structure Optimization'>}
mp-2714469,Na18 La6 Si12 Sn6 S6 O72,1.3023,{'mp-2714469': <CalcType.GGA_Structure_Optimization: 'GGA Structure Optimization'>}
mp-2714462,Na24 Hf6 Zn6 Si12 S6 O72,3.172799999999999,{'mp-2714462': <CalcType.GGA_Structure_Optimization: 'GGA Structure Optimization'>}
mp-2714464,Na6 Ca6 Zr6 P6 S12 O72,3.0695,{'mp-2714464': <CalcType.GGA_Structure_Optimization: 'GGA Structure Optimization'>}
mp-2714443,Na24 Mg6 Si6 Sn6 P12 O72,2.2248,{'mp-2714443': <CalcType.GGA_Structure_Optimization: 'GGA Structure Optimization'>}
mp-2714449,Na18 In6 Si12 Sn6 S6 O72,2.040399999999999,{'mp-2714449': <CalcType.GGA_Structure_Optimization: 'GGA Structure Optimization'>}
mp-2714450,Na18 Ti6 In6 Si12 S6 O72,2.4455,{'mp-2714450': <CalcType.GGA_Structure_Optimization: 'GGA Structure Optimization'>}
mp-2714468,Na18 Ta6 Zn6 Si12 S6 O72,2.2546,{'mp-2714468': <CalcType.GGA_Structure_Optimization: 'GGA Structure Optimization'>}
mp-2714465,Na24 Ca6 Si6 Sn6 P12 O72,1.4493,{'mp-2714465': <CalcType.GGA_Structure_Optimization: 'GGA Structure Optimization'>}
mp-2714451,Na18 Hf6 In6 Si12 S6 O72,3.4524,{'mp-2714451': <CalcType.GGA_Structure_Optimization: 'GGA Structure Optimization'>}
mp-2714453,Na18 Ca6 Nb6 Si12 S6 O72,1.408299999999999,{'mp-2714453': <CalcType.GGA_Structure_Optimization: 'GGA Structure Optimization'>}
mp-2714513,Na18 Nb6 Zn6 Si12 S6 O72,1.534,{'mp-2714513': <CalcType.GGA_Structure_Optimization: 'GGA Structure Optimization'>}
mp-2714485,Na18 Hf6 Ga6 Si12 S6 O72,3.518099999999999,{'mp-2714485': <CalcType.GGA_Structure_Optimization: 'GGA Structure Optimization'>}
mp-2714488,Na24 Ca6 Zr6 Si6 P12 O72,3.2605,{'mp-2714488': <CalcType.GGA_Structure_Optimization: 'GGA Structure Optimization'>}
mp-2714491,Na18 La6 Hf6 Si12 S6 O72,3.841,{'mp-2714491': <CalcType.GGA_Structure_Optimization: 'GGA Structure Optimization'>}
mp-2714503,Na6 Zn6 Sn6 P6 S12 O72,1.7826,{'mp-2714503': <CalcType.GGA_Structure_Optimization: 'GGA Structure Optimization'>}
mp-2714505,Na18 La6 Zr6 Si12 S6 O72,3.724599999999999,{'mp-2714505': <CalcType.GGA_Structure_Optimization: 'GGA Structure Optimization'>}
mp-2714495,Na6 Hf6 Mg6 P6 S12 O72,4.1427,{'mp-2714495': <CalcType.GGA_Structure_Optimization: 'GGA Structure Optimization'>}
mp-2714477,Na24 Hf6 Mg6 Si12 S6 O72,3.6522,{'mp-2714477': <CalcType.GGA_Structure_Optimization: 'GGA Structure Optimization'>}
mp-2714482,Na18 Ti6 Ga6 Si12 S6 O72,2.4925,{'mp-2714482': <CalcType.GGA_Structure_Optimization: 'GGA Structure Optimization'>}
mp-2714499,Na18 Sc6 Si12 Sn6 S6 O72,2.142299999999999,{'mp-2714499': <CalcType.GGA_Structure_Optimization: 'GGA Structure Optimization'>}
mp-2714539,Na24 Mg6 Ti6 Si12 S6 O72,2.1345,{'mp-2714539': <CalcType.GGA_Structure_Optimization: 'GGA Structure Optimization'>}
mp-2714562,Na18 Al6 Si12 Sn6 S6 O72,2.5934,{'mp-2714562': <CalcType.GGA_Structure_Optimization: 'GGA Structure Optimization'>}
mp-2714530,Na24 Zn6 Si12 Ge6 S6 O72,1.157699999999999,{'mp-2714530': <CalcType.GGA_Structure_Optimization: 'GGA Structure Optimization'>}
mp-2714540,Na18 Y6 Hf6 Si12 S6 O72,3.936,{'mp-2714540': <CalcType.GGA_Structure_Optimization: 'GGA Structure Optimization'>}
mp-2714535,Na18 Zr6 Sc6 Si12 S6 O72,4.0225,{'mp-2714535': <CalcType.GGA_Structure_Optimization: 'GGA Structure Optimization'>}
mp-2714546,Na18 Mg6 Ta6 Si12 S6 O72,2.325299999999999,{'mp-2714546': <CalcType.GGA_Structure_Optimization: 'GGA Structure Optimization'>}
mp-2714525,Na18 Sc6 Si12 Ge6 S6 O72,2.0906000000000002,{'mp-2714525': <CalcType.GGA_Structure_Optimization: 'GGA Structure Optimization'>}
mp-2714534,Na18 Hf6 Al6 Si12 S6 O72,4.1007,{'mp-2714534': <CalcType.GGA_Structure_Optimization: 'GGA Structure Optimization'>}
mp-2714567,Na18 Zr6 In6 Si12 S6 O72,3.4746,{'mp-2714567': <CalcType.GGA_Structure_Optimization: 'GGA Structure Optimization'>}
mp-2714568,Na24 Ca6 Si12 Ge6 S6 O72,1.6831,{'mp-2714568': <CalcType.GGA_Structure_Optimization: 'GGA Structure Optimization'>}
mp-2714579,Na18 La6 Ti6 Si12 S6 O72,2.305,{'mp-2714579': <CalcType.GGA_Structure_Optimization: 'GGA Structure Optimization'>}
mp-2714569,Na24 Ca6 Hf6 Si12 S6 O72,3.3384,{'mp-2714569': <CalcType.GGA_Structure_Optimization: 'GGA Structure Optimization'>}
mp-2714570,Na24 Zn6 Si12 Sn6 S6 O72,1.3491,{'mp-2714570': <CalcType.GGA_Structure_Optimization: 'GGA Structure Optimization'>}
mp-2714565,Na6 Ca6 Ti6 P6 S12 O72,1.649299999999999,{'mp-2714565': <CalcType.GGA_Structure_Optimization: 'GGA Structure Optimization'>}
mp-2714584,Na18 Y6 Si12 Sn6 S6 O72,1.866099999999999,{'mp-2714584': <CalcType.GGA_Structure_Optimization: 'GGA Structure Optimization'>}
mp-2714580,Na18 Ca6 Ta6 Si12 S6 O72,2.1137,{'mp-2714580': <CalcType.GGA_Structure_Optimization: 'GGA Structure Optimization'>}
mp-2714585,Na6 Ti6 Zn6 P6 S12 O72,1.7425000000000002,{'mp-2714585': <CalcType.GGA_Structure_Optimization: 'GGA Structure Optimization'>}
mp-2714587,Na24 Ca6 Si6 Ge6 P12 O72,0.9436999999999991,{'mp-2714587': <CalcType.GGA_Structure_Optimization: 'GGA Structure Optimization'>}
mp-2714586,Na6 Hf6 Zn6 P6 S12 O72,4.207999999999999,{'mp-2714586': <CalcType.GGA_Structure_Optimization: 'GGA Structure Optimization'>}
mp-2714594,Na24 Mg6 Si6 Ge6 P12 O72,1.7059000000000002,{'mp-2714594': <CalcType.GGA_Structure_Optimization: 'GGA Structure Optimization'>}
mp-2714592,Na24 Hf6 Mg6 Si6 P12 O72,3.9059,{'mp-2714592': <CalcType.GGA_Structure_Optimization: 'GGA Structure Optimization'>}
mp-2714600,Na24 Mg6 Si12 Sn6 S6 O72,1.774099999999999,{'mp-2714600': <CalcType.GGA_Structure_Optimization: 'GGA Structure Optimization'>}
mp-2714597,Na24 Ti6 Zn6 Si12 S6 O72,1.8464,{'mp-2714597': <CalcType.GGA_Structure_Optimization: 'GGA Structure Optimization'>}
mp-2714614,Na18 Zr6 Ga6 Si12 S6 O72,3.457999999999999,{'mp-2714614': <CalcType.GGA_Structure_Optimization: 'GGA Structure Optimization'>}
mp-2714938,Na12 Hf6 Nb6 Si12 P6 O72,2.8016,{'mp-2714938': <CalcType.GGA_Structure_Optimization: 'GGA Structure Optimization'>}
mp-2714945,Na12 Hf6 Ta6 Si12 P6 O72,3.6194,{'mp-2714945': <CalcType.GGA_Structure_Optimization: 'GGA Structure Optimization'>}
mp-2714601,Na24 Hf6 Zn6 Si6 P12 O72,3.620199999999999,{'mp-2714601': <CalcType.GGA_Structure_Optimization: 'GGA Structure Optimization'>}
mp-2714604,Na6 Ca6 Sn6 P6 S12 O72,1.053699999999999,{'mp-2714604': <CalcType.GGA_Structure_Optimization: 'GGA Structure Optimization'>}
mp-2714608,Na24 Ca6 Zr6 Si12 S6 O72,3.431499999999999,{'mp-2714608': <CalcType.GGA_Structure_Optimization: 'GGA Structure Optimization'>}
mp-2715133,Na12 Ta6 Si12 Ge6 P6 O72,3.3161,{'mp-2715133': <CalcType.GGA_Structure_Optimization: 'GGA Structure Optimization'>}
mp-2714998,Na12 Ta6 Ti6 Si12 P6 O72,2.8779,{'mp-2714998': <CalcType.GGA_Structure_Optimization: 'GGA Structure Optimization'>}
mp-2715193,Na12 Zr6 Ta6 Si12 P6 O72,3.545,{'mp-2715193': <CalcType.GGA_Structure_Optimization: 'GGA Structure Optimization'>}
mp-2715108,Na12 Nb6 Si12 Sn6 P6 O72,2.816099999999999,{'mp-2715108': <CalcType.GGA_Structure_Optimization: 'GGA Structure Optimization'>}
mp-2715149,Na12 Ta6 Si12 Sn6 P6 O72,3.637,{'mp-2715149': <CalcType.GGA_Structure_Optimization: 'GGA Structure Optimization'>}
mp-2715158,Na12 Nb6 Si12 Ge6 P6 O72,2.9165,{'mp-2715158': <CalcType.GGA_Structure_Optimization: 'GGA Structure Optimization'>}
mp-2715224,Na18 Y6 Hf6 Si6 P12 O72,4.2925,{'mp-2715224': <CalcType.GGA_Structure_Optimization: 'GGA Structure Optimization'>}
mp-2715225,Na12 Ca4 Ta4 Si4 P8 O48,2.590799999999999,{'mp-2715225': <CalcType.GGA_Structure_Optimization: 'GGA Structure Optimization'>}
mp-2715233,Na18 Al6 Si6 Ge6 P12 O72,2.912399999999999,{'mp-2715233': <CalcType.GGA_Structure_Optimization: 'GGA Structure Optimization'>}
mp-2715226,Na12 Y4 Ti4 Si4 P8 O48,2.159,{'mp-2715226': <CalcType.GGA_Structure_Optimization: 'GGA Structure Optimization'>}
mp-2715238,Na18 Hf6 In6 Si6 P12 O72,3.7828,{'mp-2715238': <CalcType.GGA_Structure_Optimization: 'GGA Structure Optimization'>}
mp-2715248,Na36 Nb12 Ga12 Si24 P12 O144,2.3012,{'mp-2715248': <CalcType.GGA_Structure_Optimization: 'GGA Structure Optimization'>}
mp-2715249,Na18 Y6 Si6 Ge6 P12 O72,1.6716000000000002,{'mp-2715249': <CalcType.GGA_Structure_Optimization: 'GGA Structure Optimization'>}
mp-2715241,Na36 Ta12 In12 Si24 P12 O144,0.5356000000000001,{'mp-2715241': <CalcType.GGA_Structure_Optimization: 'GGA Structure Optimization'>}
mp-2715245,Na12 Hf4 In4 Si4 P8 O48,3.928699999999999,{'mp-2715245': <CalcType.GGA_Structure_Optimization: 'GGA Structure Optimization'>}
mp-2715227,Na18 Zr6 In6 Si6 P12 O72,2.887,{'mp-2715227': <CalcType.GGA_Structure_Optimization: 'GGA Structure Optimization'>}
mp-2715267,Na18 Y6 Ti6 Si6 P12 O72,2.0505,{'mp-2715267': <CalcType.GGA_Structure_Optimization: 'GGA Structure Optimization'>}
mp-2715260,Na12 La4 Si4 Sn4 P8 O48,1.9805000000000001,{'mp-2715260': <CalcType.GGA_Structure_Optimization: 'GGA Structure Optimization'>}
mp-2715291,Na18 Ca6 Nb6 Si6 P12 O72,1.7041,{'mp-2715291': <CalcType.GGA_Structure_Optimization: 'GGA Structure Optimization'>}
mp-2715281,Na18 Sc6 Ta6 Si12 P6 O72,3.2044,{'mp-2715281': <CalcType.GGA_Structure_Optimization: 'GGA Structure Optimization'>}
mp-2715292,Na12 Al4 Si4 Sn4 P8 O48,3.2664,{'mp-2715292': <CalcType.GGA_Structure_Optimization: 'GGA Structure Optimization'>}
mp-2715255,Na12 Hf4 Al4 Si4 P8 O48,4.5863,{'mp-2715255': <CalcType.GGA_Structure_Optimization: 'GGA Structure Optimization'>}
mp-2715270,Na12 Zr4 In4 Si4 P8 O48,3.7605999999999993,{'mp-2715270': <CalcType.GGA_Structure_Optimization: 'GGA Structure Optimization'>}
mp-2715271,Na36 La12 Nb12 Si24 P12 O144,2.33,{'mp-2715271': <CalcType.GGA_Structure_Optimization: 'GGA Structure Optimization'>}
mp-2715284,Na18 Ta6 Ga6 Si12 P6 O72,3.348999999999999,{'mp-2715284': <CalcType.GGA_Structure_Optimization: 'GGA Structure Optimization'>}
mp-2715285,Na18 Sc6 Si6 Ge6 P12 O72,2.285199999999999,{'mp-2715285': <CalcType.GGA_Structure_Optimization: 'GGA Structure Optimization'>}
mp-2715252,Na18 Ta6 In6 Si12 P6 O72,3.0581,{'mp-2715252': <CalcType.GGA_Structure_Optimization: 'GGA Structure Optimization'>}
mp-2715305,Na12 Y4 Hf4 Si4 P8 O48,4.4501,{'mp-2715305': <CalcType.GGA_Structure_Optimization: 'GGA Structure Optimization'>}
mp-2715295,Na12 Y4 Si4 Ge4 P8 O48,2.332,{'mp-2715295': <CalcType.GGA_Structure_Optimization: 'GGA Structure Optimization'>}
mp-2715308,Na12 Mg4 Ta4 Si4 P8 O48,2.4483,{'mp-2715308': <CalcType.GGA_Structure_Optimization: 'GGA Structure Optimization'>}
mp-2715317,Na12 Ga4 Si4 Sn4 P8 O48,3.068399999999999,{'mp-2715317': <CalcType.GGA_Structure_Optimization: 'GGA Structure Optimization'>}
mp-2715332,Na18 Ti6 In6 Si6 P12 O72,2.2454,{'mp-2715332': <CalcType.GGA_Structure_Optimization: 'GGA Structure Optimization'>}
mp-2715324,Na36 Ta12 Ga12 Si24 P12 O144,3.1258,{'mp-2715324': <CalcType.GGA_Structure_Optimization: 'GGA Structure Optimization'>}