Material ID,Composition,Band Gap,Calc Types
mp-760016,Li2 V2 Fe2 P4 H4 O20,0.0,"{'mp-765317': <CalcType.GGA_U_Structure_Optimization: 'GGA+U Structure Optimization'>, 'mp-808261': <CalcType.GGA_U_NSCF_Line: 'GGA+U NSCF Line'>, 'mp-801336': <CalcType.GGA_U_Static: 'GGA+U Static'>, 'mp-760016': <CalcType.GGA_Structure_Optimization: 'GGA Structure Optimization'>, 'mp-881582': <CalcType.GGA_Static: 'GGA Static'>, 'mp-1353792': <CalcType.GGA_U_Static: 'GGA+U Static'>, 'mp-1684715': <CalcType.GGA_U_NSCF_Uniform: 'GGA+U NSCF Uniform'>, 'mp-1841480': <CalcType.GGA_U_Static: 'GGA+U Static'>, 'mp-808931': <CalcType.GGA_U_NSCF_Line: 'GGA+U NSCF Line'>}"
mp-760034,Li6 V3 Fe3 P6 H6 O30,1.5143,"{'mp-765063': <CalcType.GGA_U_Structure_Optimization: 'GGA+U Structure Optimization'>, 'mp-801187': <CalcType.GGA_U_Static: 'GGA+U Static'>, 'mp-806802': <CalcType.GGA_U_NSCF_Line: 'GGA+U NSCF Line'>, 'mp-760034': <CalcType.GGA_Structure_Optimization: 'GGA Structure Optimization'>, 'mp-881430': <CalcType.GGA_Static: 'GGA Static'>, 'mp-1349277': <CalcType.GGA_U_Static: 'GGA+U Static'>, 'mp-1658252': <CalcType.GGA_U_Static: 'GGA+U Static'>, 'mp-1883413': <CalcType.GGA_U_Static: 'GGA+U Static'>, 'mp-808159': <CalcType.GGA_U_NSCF_Line: 'GGA+U NSCF Line'>}"
mp-760191,Li2 Mn2 V2 P4 H4 O20,1.0013,"{'mp-765074': <CalcType.GGA_U_Structure_Optimization: 'GGA+U Structure Optimization'>, 'mp-760191': <CalcType.GGA_Structure_Optimization: 'GGA Structure Optimization'>, 'mp-1838195': <CalcType.GGA_U_Static: 'GGA+U Static'>}"
mp-760167,Li6 V3 Cr3 P6 H6 O30,1.7495999999999992,"{'mp-765065': <CalcType.GGA_U_Structure_Optimization: 'GGA+U Structure Optimization'>, 'mp-801198': <CalcType.GGA_U_Static: 'GGA+U Static'>, 'mp-806808': <CalcType.GGA_U_NSCF_Line: 'GGA+U NSCF Line'>, 'mp-760167': <CalcType.GGA_Structure_Optimization: 'GGA Structure Optimization'>, 'mp-881429': <CalcType.GGA_Static: 'GGA Static'>, 'mp-1348979': <CalcType.GGA_U_Static: 'GGA+U Static'>, 'mp-1866746': <CalcType.GGA_U_Static: 'GGA+U Static'>, 'mp-808168': <CalcType.GGA_U_NSCF_Line: 'GGA+U NSCF Line'>}"
mp-760822,Li4 V2 Fe2 P4 H4 O20,1.760299999999999,"{'mp-765377': <CalcType.GGA_U_Structure_Optimization: 'GGA+U Structure Optimization'>, 'mp-801466': <CalcType.GGA_U_Static: 'GGA+U Static'>, 'mp-808295': <CalcType.GGA_U_NSCF_Line: 'GGA+U NSCF Line'>, 'mp-760822': <CalcType.GGA_Structure_Optimization: 'GGA Structure Optimization'>, 'mp-1356980': <CalcType.GGA_U_Static: 'GGA+U Static'>, 'mp-1660002': <CalcType.GGA_U_Static: 'GGA+U Static'>, 'mp-1837504': <CalcType.GGA_U_Static: 'GGA+U Static'>, 'mp-808965': <CalcType.GGA_U_NSCF_Line: 'GGA+U NSCF Line'>}"
mp-776451,Li6 Mn3 V3 P6 H6 O30,0.5223,"{'mp-805805': <CalcType.GGA_U_Static: 'GGA+U Static'>, 'mp-777091': <CalcType.GGA_U_Structure_Optimization: 'GGA+U Structure Optimization'>, 'mp-814774': <CalcType.GGA_U_NSCF_Line: 'GGA+U NSCF Line'>, 'mp-776451': <CalcType.GGA_Structure_Optimization: 'GGA Structure Optimization'>, 'mp-1350016': <CalcType.GGA_U_Static: 'GGA+U Static'>, 'mp-1930946': <CalcType.GGA_U_Static: 'GGA+U Static'>, 'mp-815553': <CalcType.GGA_U_NSCF_Line: 'GGA+U NSCF Line'>}"
mp-776482,Li6 Mn3 V3 P6 H6 O30,0.523099999999999,"{'mp-808010': <CalcType.GGA_U_Static: 'GGA+U Static'>, 'mp-777149': <CalcType.GGA_U_Structure_Optimization: 'GGA+U Structure Optimization'>, 'mp-815138': <CalcType.GGA_U_NSCF_Line: 'GGA+U NSCF Line'>, 'mp-776482': <CalcType.GGA_Structure_Optimization: 'GGA Structure Optimization'>, 'mp-1352263': <CalcType.GGA_U_Static: 'GGA+U Static'>, 'mp-1863510': <CalcType.GGA_U_Static: 'GGA+U Static'>, 'mp-815899': <CalcType.GGA_U_NSCF_Line: 'GGA+U NSCF Line'>}"
mp-849445,Li4 Mn2 V2 P4 H4 O20,0.0,"{'mp-849445': <CalcType.GGA_U_Structure_Optimization: 'GGA+U Structure Optimization'>, 'mp-1292641': <CalcType.GGA_U_Static: 'GGA+U Static'>, 'mp-1299404': <CalcType.GGA_U_Structure_Optimization: 'GGA+U Structure Optimization'>, 'mp-1299530': <CalcType.GGA_U_Structure_Optimization: 'GGA+U Structure Optimization'>, 'mp-1299578': <CalcType.GGA_U_Structure_Optimization: 'GGA+U Structure Optimization'>, 'mp-1296468': <CalcType.GGA_U_Static: 'GGA+U Static'>, 'mp-1314540': <CalcType.GGA_U_Structure_Optimization: 'GGA+U Structure Optimization'>, 'mp-1315298': <CalcType.GGA_U_Structure_Optimization: 'GGA+U Structure Optimization'>, 'mp-1319776': <CalcType.GGA_U_Static: 'GGA+U Static'>, 'mp-1309381': <CalcType.GGA_U_Static: 'GGA+U Static'>, 'mp-1304166': <CalcType.GGA_U_Static: 'GGA+U Static'>, 'mp-1319111': <CalcType.GGA_U_Static: 'GGA+U Static'>, 'mp-1301214': <CalcType.GGA_U_Static: 'GGA+U Static'>, 'mp-1305697': <CalcType.GGA_U_Static: 'GGA+U Static'>, 'mp-1316160': <CalcType.GGA_U_Structure_Optimization: 'GGA+U Structure Optimization'>, 'mp-1313179': <CalcType.GGA_U_Static: 'GGA+U Static'>, 'mp-1322131': <CalcType.GGA_U_Static: 'GGA+U Static'>, 'mp-1316214': <CalcType.GGA_U_Structure_Optimization: 'GGA+U Structure Optimization'>, 'mp-1316225': <CalcType.GGA_U_Static: 'GGA+U Static'>, 'mp-1322211': <CalcType.GGA_U_Structure_Optimization: 'GGA+U Structure Optimization'>, 'mp-1319231': <CalcType.GGA_U_Structure_Optimization: 'GGA+U Structure Optimization'>, 'mp-1305089': <CalcType.GGA_U_Structure_Optimization: 'GGA+U Structure Optimization'>, 'mp-1322254': <CalcType.GGA_U_Static: 'GGA+U Static'>, 'mp-1302137': <CalcType.GGA_U_Static: 'GGA+U Static'>, 'mp-1313353': <CalcType.GGA_U_Structure_Optimization: 'GGA+U Structure Optimization'>, 'mp-1317109': <CalcType.GGA_U_Static: 'GGA+U Static'>, 'mp-1314892': <CalcType.GGA_U_Structure_Optimization: 'GGA+U Structure Optimization'>, 'mp-1311951': <CalcType.GGA_U_Structure_Optimization: 'GGA+U Structure Optimization'>, 'mp-1304587': <CalcType.GGA_U_Structure_Optimization: 'GGA+U Structure Optimization'>, 'mp-1318028': <CalcType.GGA_U_Static: 'GGA+U Static'>, 'mp-1302476': <CalcType.GGA_U_Structure_Optimization: 'GGA+U Structure Optimization'>, 'mp-1314429': <CalcType.GGA_U_Static: 'GGA+U Static'>, 'mp-1340378': <CalcType.GGA_U_Static: 'GGA+U Static'>, 'mp-1362442': <CalcType.GGA_U_Structure_Optimization: 'GGA+U Structure Optimization'>}"
mp-776556,Li4 Mn2 V2 P4 H4 O20,0.744799999999999,"{'mp-777228': <CalcType.GGA_U_Structure_Optimization: 'GGA+U Structure Optimization'>, 'mp-776556': <CalcType.GGA_Structure_Optimization: 'GGA Structure Optimization'>, 'mp-1361753': <CalcType.GGA_U_Static: 'GGA+U Static'>, 'mp-1770759': <CalcType.GGA_U_Static: 'GGA+U Static'>, 'mp-1838931': <CalcType.GGA_U_Static: 'GGA+U Static'>}"
mp-776506,Li6 Mn3 V3 P6 H6 O30,0.0541,"{'mp-902787': <CalcType.GGA_U_NSCF_Line: 'GGA+U NSCF Line'>, 'mp-889318': <CalcType.GGA_U_Static: 'GGA+U Static'>, 'mp-776718': <CalcType.GGA_U_Structure_Optimization: 'GGA+U Structure Optimization'>, 'mp-776506': <CalcType.GGA_Structure_Optimization: 'GGA Structure Optimization'>, 'mp-1352911': <CalcType.GGA_U_Static: 'GGA+U Static'>, 'mp-1875503': <CalcType.GGA_U_Static: 'GGA+U Static'>}"
mp-818718,Ni1 H44 C12 N8 Cl2 O10,0.0,"{'mp-849032': <CalcType.GGA_U_NSCF_Line: 'GGA+U NSCF Line'>, 'mp-818718': <CalcType.GGA_U_Static: 'GGA+U Static'>, 'mp-834391': <CalcType.GGA_Static: 'GGA Static'>, 'mp-849041': <CalcType.GGA_U_NSCF_Line: 'GGA+U NSCF Line'>}"
mp-849542,Li4 Mn2 V2 P4 H4 O20,0.6128,"{'mp-849542': <CalcType.GGA_U_Structure_Optimization: 'GGA+U Structure Optimization'>, 'mp-856513': <CalcType.GGA_U_Static: 'GGA+U Static'>, 'mp-857862': <CalcType.GGA_U_NSCF_Line: 'GGA+U NSCF Line'>, 'mp-1362019': <CalcType.GGA_U_Static: 'GGA+U Static'>, 'mp-1843076': <CalcType.GGA_U_Static: 'GGA+U Static'>, 'mp-858345': <CalcType.GGA_U_NSCF_Line: 'GGA+U NSCF Line'>}"
mp-849539,Li4 Mn2 V2 P4 H4 O20,0.46240000000000003,"{'mp-850175': <CalcType.GGA_U_Structure_Optimization: 'GGA+U Structure Optimization'>, 'mp-857159': <CalcType.GGA_U_Static: 'GGA+U Static'>, 'mp-858089': <CalcType.GGA_U_NSCF_Line: 'GGA+U NSCF Line'>, 'mp-849539': <CalcType.GGA_Structure_Optimization: 'GGA Structure Optimization'>, 'mp-1361362': <CalcType.GGA_U_Static: 'GGA+U Static'>, 'mp-1769394': <CalcType.GGA_U_Static: 'GGA+U Static'>, 'mp-1838001': <CalcType.GGA_U_Static: 'GGA+U Static'>, 'mp-858983': <CalcType.GGA_U_NSCF_Line: 'GGA+U NSCF Line'>}"
mp-778070,Li4 Mn2 V2 P4 H4 O20,0.3239,"{'mp-778070': <CalcType.GGA_U_Structure_Optimization: 'GGA+U Structure Optimization'>, 'mp-889260': <CalcType.GGA_U_Static: 'GGA+U Static'>, 'mp-902775': <CalcType.GGA_U_NSCF_Line: 'GGA+U NSCF Line'>, 'mp-1380249': <CalcType.GGA_U_Static: 'GGA+U Static'>, 'mp-1842807': <CalcType.GGA_U_Static: 'GGA+U Static'>}"
mp-2232000,K2 Na2 Nd2 Mg1 Nb2 O10,0.0,"{'mp-2232088': <CalcType.GGA_Structure_Optimization: 'GGA Structure Optimization'>, 'mp-2232000': <CalcType.GGA_Static: 'GGA Static'>}"
mp-2231510,K2 Na2 Pr2 Mg1 Nb2 O10,0.0,"{'mp-2231510': <CalcType.GGA_Structure_Optimization: 'GGA Structure Optimization'>, 'mp-2231909': <CalcType.GGA_Static: 'GGA Static'>}"
mp-1226437,Cr4 H4 Pb8 Cl2 O20 F2,2.067199999999999,"{'mp-1226437': <CalcType.GGA_U_Structure_Optimization: 'GGA+U Structure Optimization'>, 'mp-1359267': <CalcType.GGA_U_Static: 'GGA+U Static'>, 'mp-1937568': <CalcType.GGA_U_Static: 'GGA+U Static'>}"
mp-1222936,Li4 Al2 Ga2 Si4 H8 O20,4.349,"{'mp-1222936': <CalcType.GGA_Structure_Optimization: 'GGA Structure Optimization'>, 'mp-1818456': <CalcType.GGA_Static: 'GGA Static'>}"
mp-684841,K2 Mg6 Al2 Si6 O20 F4,4.0334,"{'mp-725143': <CalcType.GGA_Static: 'GGA Static'>, 'mp-848532': <CalcType.GGA_NSCF_Line: 'GGA NSCF Line'>, 'mp-684841': <CalcType.GGA_Structure_Optimization: 'GGA Structure Optimization'>, 'mp-1357071': <CalcType.GGA_Static: 'GGA Static'>, 'mp-1826780': <CalcType.GGA_Static: 'GGA Static'>, 'mp-746115': <CalcType.GGA_NSCF_Line: 'GGA NSCF Line'>}"
mp-2230710,Na3 Mg1 Ti2 P2 O10 F1,0.30770000000000003,{'mp-2230710': <CalcType.GGA_Structure_Optimization: 'GGA Structure Optimization'>}
mp-1218533,Sr3 La1 Cu2 Hg1 Bi1 O10,0.0,"{'mp-1218533': <CalcType.GGA_Structure_Optimization: 'GGA Structure Optimization'>, 'mp-1367526': <CalcType.GGA_Static: 'GGA Static'>, 'mp-1927568': <CalcType.GGA_Static: 'GGA Static'>}"
mp-2230838,Mg1 Ti2 Tl2 W2 O10 F2,0.0,"{'mp-2231524': <CalcType.GGA_U_Static: 'GGA+U Static'>, 'mp-2230838': <CalcType.GGA_U_Structure_Optimization: 'GGA+U Structure Optimization'>}"
mp-2228384,Na1 Mg1 Cu2 H2 Se2 O10,0.0,{'mp-2228384': <CalcType.GGA_Structure_Optimization: 'GGA Structure Optimization'>}
mp-752778,Cs4 Li4 Mn4 P12 H4 O40,3.0472,"{'mp-1178398': <CalcType.GGA_U_Structure_Optimization: 'GGA+U Structure Optimization'>, 'mp-752778': <CalcType.GGA_Structure_Optimization: 'GGA Structure Optimization'>, 'mp-827626': <CalcType.GGA_Static: 'GGA Static'>, 'mp-829653': <CalcType.GGA_NSCF_Line: 'GGA NSCF Line'>, 'mp-1295071': <CalcType.GGA_U_Static: 'GGA+U Static'>, 'mp-1290727': <CalcType.GGA_U_Static: 'GGA+U Static'>, 'mp-1293142': <CalcType.GGA_U_Structure_Optimization: 'GGA+U Structure Optimization'>, 'mp-1297708': <CalcType.GGA_U_Structure_Optimization: 'GGA+U Structure Optimization'>, 'mp-1313141': <CalcType.GGA_U_Static: 'GGA+U Static'>, 'mp-1321458': <CalcType.GGA_U_Structure_Optimization: 'GGA+U Structure Optimization'>, 'mp-1319241': <CalcType.GGA_U_Static: 'GGA+U Static'>, 'mp-1308853': <CalcType.GGA_U_Static: 'GGA+U Static'>, 'mp-1313350': <CalcType.GGA_U_Structure_Optimization: 'GGA+U Structure Optimization'>, 'mp-1317114': <CalcType.GGA_U_Static: 'GGA+U Static'>, 'mp-1305967': <CalcType.GGA_U_Static: 'GGA+U Static'>, 'mp-1306004': <CalcType.GGA_U_Structure_Optimization: 'GGA+U Structure Optimization'>, 'mp-1312759': <CalcType.GGA_U_Static: 'GGA+U Static'>, 'mp-1318030': <CalcType.GGA_U_Structure_Optimization: 'GGA+U Structure Optimization'>, 'mp-1310698': <CalcType.GGA_U_Structure_Optimization: 'GGA+U Structure Optimization'>, 'mp-1362573': <CalcType.GGA_U_Structure_Optimization: 'GGA+U Structure Optimization'>, 'mp-1368949': <CalcType.GGA_U_Static: 'GGA+U Static'>, 'mp-1848472': <CalcType.GGA_U_Static: 'GGA+U Static'>, 'mp-830174': <CalcType.GGA_NSCF_Line: 'GGA NSCF Line'>}"
mp-2230014,K2 Na2 Sm2 Mg1 Nb2 O10,0.0,{'mp-2230014': <CalcType.GGA_Structure_Optimization: 'GGA Structure Optimization'>}
mp-2231329,K2 Na2 Nd2 Mg1 Nb2 O10,0.0,{'mp-2231329': <CalcType.GGA_Structure_Optimization: 'GGA Structure Optimization'>}
mp-2228359,Mg1 Tl2 Cu2 H2 Se2 O10,0.24929999999999902,{'mp-2228359': <CalcType.GGA_Structure_Optimization: 'GGA Structure Optimization'>}
mp-2231615,Mg1 Tl2 Cu2 H2 Se2 O10,0.236799999999999,{'mp-2231615': <CalcType.GGA_Structure_Optimization: 'GGA Structure Optimization'>}
mp-2230339,K2 Na2 La2 Mg1 Nb2 O10,0.0,{'mp-2230339': <CalcType.GGA_Structure_Optimization: 'GGA Structure Optimization'>}
mp-2231511,K2 Na2 Pr2 Mg1 Nb2 O10,0.0,{'mp-2231511': <CalcType.GGA_Structure_Optimization: 'GGA Structure Optimization'>}
mp-604071,K16 Fe8 P8 H40 C16 O80,2.5254,"{'mp-818981': <CalcType.GGA_U_Static: 'GGA+U Static'>, 'mp-604118': <CalcType.GGA_U_Structure_Optimization: 'GGA+U Structure Optimization'>, 'mp-604071': <CalcType.GGA_Structure_Optimization: 'GGA Structure Optimization'>, 'mp-1334059': <CalcType.GGA_U_Static: 'GGA+U Static'>}"
mp-729033,Mn4 Cu4 H40 Se8 Cl8 O40,0.3221,"{'mp-744703': <CalcType.GGA_U_Structure_Optimization: 'GGA+U Structure Optimization'>, 'mp-887932': <CalcType.GGA_U_Static: 'GGA+U Static'>, 'mp-902122': <CalcType.GGA_U_NSCF_Line: 'GGA+U NSCF Line'>, 'mp-729033': <CalcType.GGA_Static: 'GGA Static'>, 'mp-832846': <CalcType.GGA_NSCF_Line: 'GGA NSCF Line'>, 'mp-1365194': <CalcType.GGA_U_Static: 'GGA+U Static'>, 'mp-1845576': <CalcType.GGA_U_Static: 'GGA+U Static'>}"
mp-1201407,V8 Co2 H8 C8 N4 O20,0.8250000000000001,"{'mp-1201407': <CalcType.GGA_U_Structure_Optimization: 'GGA+U Structure Optimization'>, 'mp-1238304': <CalcType.GGA_U_Structure_Optimization: 'GGA+U Structure Optimization'>, 'mp-1341710': <CalcType.GGA_U_Static: 'GGA+U Static'>, 'mp-1936956': <CalcType.GGA_U_Static: 'GGA+U Static'>}"
mp-559375,Cs4 K4 Te4 H24 S4 O40,3.4175,"{'mp-681360': <CalcType.GGA_NSCF_Line: 'GGA NSCF Line'>, 'mp-657980': <CalcType.GGA_Static: 'GGA Static'>, 'mp-665989': <CalcType.GGA_NSCF_Line: 'GGA NSCF Line'>, 'mp-559375': <CalcType.GGA_Structure_Optimization: 'GGA Structure Optimization'>, 'mp-1324157': <CalcType.GGA_Static: 'GGA Static'>, 'mp-1851163': <CalcType.GGA_Static: 'GGA Static'>}"
mp-2231110,Ba2 Nd2 Mg1 Cu2 B2 O10,0.10350000000000001,"{'mp-2231501': <CalcType.GGA_Static: 'GGA Static'>, 'mp-2231110': <CalcType.GGA_Structure_Optimization: 'GGA Structure Optimization'>}"
mp-1218883,Sr2 Ce1 Eu1 Cu2 Ru1 O10,0.0,"{'mp-1218883': <CalcType.GGA_Structure_Optimization: 'GGA Structure Optimization'>, 'mp-1331028': <CalcType.GGA_Static: 'GGA Static'>}"
mp-1233156,K1 Mg1 Ni2 H3 Se2 O10,1.6715,"{'mp-1233156': <CalcType.GGA_U_Static: 'GGA+U Static'>, 'mp-1234269': <CalcType.GGA_U_Structure_Optimization: 'GGA+U Structure Optimization'>}"
mp-1235304,K1 Li1 Ni2 H3 Se2 O10,0.0,"{'mp-1235304': <CalcType.GGA_U_Static: 'GGA+U Static'>, 'mp-1235371': <CalcType.GGA_U_Structure_Optimization: 'GGA+U Structure Optimization'>, 'mp-1236196': <CalcType.GGA_U_Structure_Optimization: 'GGA+U Structure Optimization'>, 'mp-1236341': <CalcType.GGA_U_Static: 'GGA+U Static'>}"
mp-1227763,Ba1 Sr2 Y2 Cu2 Pt1 O10,0.5624,"{'mp-1227763': <CalcType.GGA_Structure_Optimization: 'GGA Structure Optimization'>, 'mp-1337226': <CalcType.GGA_Static: 'GGA Static'>, 'mp-1774491': <CalcType.GGA_Static: 'GGA Static'>}"
mp-1233025,K1 Mg1 Ni2 H3 Se2 O10,1.9805000000000001,"{'mp-1233025': <CalcType.GGA_U_Structure_Optimization: 'GGA+U Structure Optimization'>, 'mp-1233778': <CalcType.GGA_U_Static: 'GGA+U Static'>}"
mp-1233858,K1 Mg1 Ni2 H3 Se2 O10,1.1218,"{'mp-1233858': <CalcType.GGA_U_Structure_Optimization: 'GGA+U Structure Optimization'>, 'mp-1234093': <CalcType.GGA_U_Static: 'GGA+U Static'>}"
mp-1235974,Rb1 Li1 Cu2 H3 S2 O10,0.28049999999999903,"{'mp-1235974': <CalcType.GGA_Structure_Optimization: 'GGA Structure Optimization'>, 'mp-1236357': <CalcType.GGA_Static: 'GGA Static'>}"
mp-2230600,K2 Mg1 Mo2 P2 Cl2 O10,1.0792,{'mp-2230600': <CalcType.GGA_U_Structure_Optimization: 'GGA+U Structure Optimization'>}
mp-2230132,K2 Mg1 Mn3 V2 H2 O10,1.328999999999999,{'mp-2230132': <CalcType.GGA_U_Structure_Optimization: 'GGA+U Structure Optimization'>}
mp-2230366,Na3 Mg1 Ti2 P2 O10 F1,0.31069999999999903,"{'mp-2230366': <CalcType.GGA_Structure_Optimization: 'GGA Structure Optimization'>, 'mp-2230563': <CalcType.GGA_Static: 'GGA Static'>}"
mp-1235688,Rb1 Li1 Cu2 H3 S2 O10,0.1067,"{'mp-1235688': <CalcType.GGA_Structure_Optimization: 'GGA Structure Optimization'>, 'mp-1236194': <CalcType.GGA_Static: 'GGA Static'>}"
mp-2230484,Mg1 Ti2 Tl2 W2 O10 F2,1.3569,"{'mp-2230484': <CalcType.GGA_U_Static: 'GGA+U Static'>, 'mp-2231681': <CalcType.GGA_U_Structure_Optimization: 'GGA+U Structure Optimization'>}"
mp-1235580,Ba1 Li1 V2 Ni3 H2 O10,1.5942,"{'mp-1235580': <CalcType.GGA_U_Static: 'GGA+U Static'>, 'mp-1236019': <CalcType.GGA_U_Structure_Optimization: 'GGA+U Structure Optimization'>}"
mp-1236326,Ba1 Li1 V2 Ni3 H2 O10,0.0114,"{'mp-1236326': <CalcType.GGA_U_Static: 'GGA+U Static'>, 'mp-1236611': <CalcType.GGA_U_Structure_Optimization: 'GGA+U Structure Optimization'>}"
mp-2231186,Rb2 Mg1 Mo2 P2 Cl2 O10,0.8871000000000001,{'mp-2231186': <CalcType.GGA_U_Structure_Optimization: 'GGA+U Structure Optimization'>}
mp-1235990,K1 Li1 Ni2 H3 Se2 O10,0.1348,"{'mp-1235990': <CalcType.GGA_U_Structure_Optimization: 'GGA+U Structure Optimization'>, 'mp-1236306': <CalcType.GGA_U_Static: 'GGA+U Static'>}"
mp-1236071,Rb1 Li1 Cu2 H3 S2 O10,0.504,"{'mp-1236071': <CalcType.GGA_Static: 'GGA Static'>, 'mp-1236540': <CalcType.GGA_Structure_Optimization: 'GGA Structure Optimization'>}"
mp-2230812,Mg1 Ti2 Tl2 W2 O10 F2,1.601299999999999,{'mp-2230812': <CalcType.GGA_U_Structure_Optimization: 'GGA+U Structure Optimization'>}
mp-2231270,Na1 Mg1 Cr2 In1 H4 O10,1.1308,{'mp-2231270': <CalcType.GGA_U_Structure_Optimization: 'GGA+U Structure Optimization'>}
mp-2231355,K2 Na2 Sm2 Mg1 Nb2 O10,0.8783000000000001,{'mp-2231355': <CalcType.GGA_Structure_Optimization: 'GGA Structure Optimization'>}
mp-2232079,K2 Na2 Pr2 Mg1 Nb2 O10,0.7528,{'mp-2232079': <CalcType.GGA_Structure_Optimization: 'GGA Structure Optimization'>}
mp-2232061,Ba4 Na1 Mg1 Cu1 C2 O10,0.5224000000000001,{'mp-2232061': <CalcType.GGA_Structure_Optimization: 'GGA Structure Optimization'>}
mp-757398,Na2 Mn2 P4 H20 N2 O20,3.9037,"{'mp-761339': <CalcType.GGA_U_Structure_Optimization: 'GGA+U Structure Optimization'>, 'mp-796786': <CalcType.GGA_U_Static: 'GGA+U Static'>, 'mp-797598': <CalcType.GGA_U_NSCF_Line: 'GGA+U NSCF Line'>, 'mp-757398': <CalcType.GGA_Structure_Optimization: 'GGA Structure Optimization'>, 'mp-826046': <CalcType.GGA_Static: 'GGA Static'>, 'mp-826893': <CalcType.GGA_NSCF_Line: 'GGA NSCF Line'>, 'mp-1330527': <CalcType.GGA_U_Static: 'GGA+U Static'>, 'mp-1822936': <CalcType.GGA_U_Static: 'GGA+U Static'>, 'mp-828941': <CalcType.GGA_NSCF_Line: 'GGA NSCF Line'>}"
mp-760023,Rb2 Li2 Mn2 P6 H2 O20,3.5241,"{'mp-800215': <CalcType.GGA_U_Static: 'GGA+U Static'>, 'mp-763847': <CalcType.GGA_U_Structure_Optimization: 'GGA+U Structure Optimization'>, 'mp-804792': <CalcType.GGA_U_NSCF_Line: 'GGA+U NSCF Line'>, 'mp-760023': <CalcType.GGA_Structure_Optimization: 'GGA Structure Optimization'>, 'mp-829467': <CalcType.GGA_NSCF_Line: 'GGA NSCF Line'>, 'mp-827463': <CalcType.GGA_Static: 'GGA Static'>, 'mp-1360901': <CalcType.GGA_U_Static: 'GGA+U Static'>, 'mp-1823477': <CalcType.GGA_U_Static: 'GGA+U Static'>, 'mp-806320': <CalcType.GGA_U_NSCF_Line: 'GGA+U NSCF Line'>, 'mp-830088': <CalcType.GGA_NSCF_Line: 'GGA NSCF Line'>}"
mp-723020,Al4 Si4 H10 C4 N2 O20,0.0,"{'mp-723020': <CalcType.GGA_Structure_Optimization: 'GGA Structure Optimization'>, 'mp-951556': <CalcType.GGA_Static: 'GGA Static'>, 'mp-955577': <CalcType.GGA_NSCF_Line: 'GGA NSCF Line'>, 'mp-956293': <CalcType.GGA_NSCF_Line: 'GGA NSCF Line'>, 'mp-1340893': <CalcType.GGA_Static: 'GGA Static'>, 'mp-1825802': <CalcType.GGA_Static: 'GGA Static'>}"
mp-2231484,K2 Na2 Sm2 Mg1 Nb2 O10,0.0,{'mp-2231484': <CalcType.GGA_Structure_Optimization: 'GGA Structure Optimization'>}