Material ID,Composition,Band Gap,Calc Types
mp-2713391,Na12 Zn9 Si3 Ge3 S15 O72,1.7114,{'mp-2713391': <CalcType.GGA_Structure_Optimization: 'GGA Structure Optimization'>}
mp-2713422,Na12 Ca6 Al6 Si3 S15 O72,3.234099999999999,{'mp-2713422': <CalcType.GGA_Structure_Optimization: 'GGA Structure Optimization'>}
mp-2713428,Na12 Ca9 Hf3 Si3 S15 O72,3.7372,{'mp-2713428': <CalcType.GGA_Structure_Optimization: 'GGA Structure Optimization'>}
mp-2713350,Na12 Mg9 Zr3 P6 S12 O72,3.086099999999999,{'mp-2713350': <CalcType.GGA_Structure_Optimization: 'GGA Structure Optimization'>}
mp-2713370,Na6 Ta6 Ga6 Si9 S9 O72,1.1188999999999991,{'mp-2713370': <CalcType.GGA_Structure_Optimization: 'GGA Structure Optimization'>}
mp-2713372,Na12 Ca6 La6 Si3 S15 O72,3.492099999999999,{'mp-2713372': <CalcType.GGA_Structure_Optimization: 'GGA Structure Optimization'>}
mp-2713380,Na12 Ca9 Ti3 P6 S12 O72,1.7221000000000002,{'mp-2713380': <CalcType.GGA_Structure_Optimization: 'GGA Structure Optimization'>}
mp-2713400,Na6 Ti6 Si9 Sn6 S9 O72,1.4854,{'mp-2713400': <CalcType.GGA_Structure_Optimization: 'GGA Structure Optimization'>}
mp-2713412,Na6 Zr6 Si9 Sn6 S9 O72,1.132099999999999,{'mp-2713412': <CalcType.GGA_Structure_Optimization: 'GGA Structure Optimization'>}
mp-2713441,Na12 Zn6 In6 Si3 S15 O72,2.6209,{'mp-2713441': <CalcType.GGA_Structure_Optimization: 'GGA Structure Optimization'>}
mp-2713443,Na6 Sc6 Ta6 Si9 S9 O72,1.3672,{'mp-2713443': <CalcType.GGA_Structure_Optimization: 'GGA Structure Optimization'>}
mp-2713463,Na6 Ta6 Nb6 Si15 S3 O72,2.196799999999999,{'mp-2713463': <CalcType.GGA_Structure_Optimization: 'GGA Structure Optimization'>}
mp-2713238,Na12 La6 Hf6 Si9 S9 O72,3.5473,{'mp-2713238': <CalcType.GGA_Structure_Optimization: 'GGA Structure Optimization'>}
mp-2713281,Na9 Mg9 Ge3 P3 S15 O72,1.8063,{'mp-2713281': <CalcType.GGA_Structure_Optimization: 'GGA Structure Optimization'>}
mp-2713352,Na12 Ca9 Ti3 Si3 S15 O72,1.5790000000000002,{'mp-2713352': <CalcType.GGA_Structure_Optimization: 'GGA Structure Optimization'>}
mp-2713432,Na15 Zr3 Sc9 Si9 S9 O72,3.2624,{'mp-2713432': <CalcType.GGA_Structure_Optimization: 'GGA Structure Optimization'>}
mp-2713417,Na6 Nb6 Al6 Si9 S9 O72,0.583299999999999,{'mp-2713417': <CalcType.GGA_Structure_Optimization: 'GGA Structure Optimization'>}
mp-2713418,Na12 Mg6 In6 Si3 S15 O72,2.243,{'mp-2713418': <CalcType.GGA_Structure_Optimization: 'GGA Structure Optimization'>}
mp-2713358,Na12 Ca9 Sn3 P6 S12 O72,1.7483,{'mp-2713358': <CalcType.GGA_Structure_Optimization: 'GGA Structure Optimization'>}
mp-2713451,Na12 Ti3 Zn9 Si3 S15 O72,1.6542,{'mp-2713451': <CalcType.GGA_Structure_Optimization: 'GGA Structure Optimization'>}
mp-2713469,Na15 Zr3 In9 Si9 S9 O72,0.8790999999999991,{'mp-2713469': <CalcType.GGA_Structure_Optimization: 'GGA Structure Optimization'>}
mp-2713413,Na6 Ti6 Si9 Ge6 S9 O72,1.505799999999999,{'mp-2713413': <CalcType.GGA_Structure_Optimization: 'GGA Structure Optimization'>}
mp-2713425,Na12 Y6 Mg6 Si3 S15 O72,3.5654,{'mp-2713425': <CalcType.GGA_Structure_Optimization: 'GGA Structure Optimization'>}
mp-2713439,Na15 Y9 Si9 Ge3 S9 O72,2.1056,{'mp-2713439': <CalcType.GGA_Structure_Optimization: 'GGA Structure Optimization'>}
mp-2713461,Na15 La9 Si9 Sn3 S9 O72,1.8785,{'mp-2713461': <CalcType.GGA_Structure_Optimization: 'GGA Structure Optimization'>}
mp-2713326,Na12 Hf9 Mg3 Si9 S9 O72,3.0499,{'mp-2713326': <CalcType.GGA_Structure_Optimization: 'GGA Structure Optimization'>}
mp-2713397,Na6 Zr6 Ti6 Si9 S9 O72,1.2392,{'mp-2713397': <CalcType.GGA_Structure_Optimization: 'GGA Structure Optimization'>}
mp-2713466,Na12 Ca6 Sc6 Si3 S15 O72,3.155799999999999,{'mp-2713466': <CalcType.GGA_Structure_Optimization: 'GGA Structure Optimization'>}
mp-2713483,Na12 Hf3 Mg9 P6 S12 O72,3.9745,{'mp-2713483': <CalcType.GGA_Structure_Optimization: 'GGA Structure Optimization'>}
mp-2713492,Na12 Zn6 Ga6 Si3 S15 O72,2.434599999999999,{'mp-2713492': <CalcType.GGA_Structure_Optimization: 'GGA Structure Optimization'>}
mp-2713489,Na15 Ti3 Ga9 Si9 S9 O72,1.9246999999999992,{'mp-2713489': <CalcType.GGA_Structure_Optimization: 'GGA Structure Optimization'>}
mp-2713474,Na12 Ca6 Ga6 Si3 S15 O72,1.8653,{'mp-2713474': <CalcType.GGA_Structure_Optimization: 'GGA Structure Optimization'>}
mp-2713278,Na12 Mg3 Si9 Ge9 S9 O72,0.058300000000000005,{'mp-2713278': <CalcType.GGA_Structure_Optimization: 'GGA Structure Optimization'>}
mp-2713291,Na12 Ca3 Zr9 Si9 S9 O72,2.3886000000000003,{'mp-2713291': <CalcType.GGA_Structure_Optimization: 'GGA Structure Optimization'>}
mp-2713367,Na12 Zr3 Zn9 P6 S12 O72,3.3321,{'mp-2713367': <CalcType.GGA_Structure_Optimization: 'GGA Structure Optimization'>}
mp-2713374,Na12 La6 Mg6 Si3 S15 O72,3.5053,{'mp-2713374': <CalcType.GGA_Structure_Optimization: 'GGA Structure Optimization'>}
mp-2713390,Na6 La6 Nb6 Si9 S9 O72,0.9718,{'mp-2713390': <CalcType.GGA_Structure_Optimization: 'GGA Structure Optimization'>}
mp-2713459,Na12 Mg9 Zr3 Si3 S15 O72,3.066099999999999,{'mp-2713459': <CalcType.GGA_Structure_Optimization: 'GGA Structure Optimization'>}
mp-2713407,Na15 Zr3 Al9 Si9 S9 O72,3.2356,{'mp-2713407': <CalcType.GGA_Structure_Optimization: 'GGA Structure Optimization'>}
mp-2713411,Na15 Y9 Ti3 Si9 S9 O72,1.652299999999999,{'mp-2713411': <CalcType.GGA_Structure_Optimization: 'GGA Structure Optimization'>}
mp-2713438,Na15 La9 Zr3 Si9 S9 O72,3.2276,{'mp-2713438': <CalcType.GGA_Structure_Optimization: 'GGA Structure Optimization'>}
mp-2713447,Na12 Y6 Zn6 Si3 S15 O72,3.4547,{'mp-2713447': <CalcType.GGA_Structure_Optimization: 'GGA Structure Optimization'>}
mp-2713487,Na15 Sc9 Ti3 Si9 S9 O72,1.8636,{'mp-2713487': <CalcType.GGA_Structure_Optimization: 'GGA Structure Optimization'>}
mp-2713502,Na6 La6 Ta6 Si9 S9 O72,1.8535,{'mp-2713502': <CalcType.GGA_Structure_Optimization: 'GGA Structure Optimization'>}
mp-2713539,Na12 Ca3 Si9 Ge9 S9 O72,0.0,{'mp-2713539': <CalcType.GGA_Structure_Optimization: 'GGA Structure Optimization'>}
mp-2713577,Na18 Hf9 Mg3 Ge6 P12 O72,3.968499999999999,{'mp-2713577': <CalcType.GGA_Structure_Optimization: 'GGA Structure Optimization'>}
mp-2713553,Na12 Zr6 In6 Si9 S9 O72,2.1131,{'mp-2713553': <CalcType.GGA_Structure_Optimization: 'GGA Structure Optimization'>}
mp-2713558,Na12 Y6 Hf6 Si9 S9 O72,3.3567,{'mp-2713558': <CalcType.GGA_Structure_Optimization: 'GGA Structure Optimization'>}
mp-2713583,Na12 Ca6 Nb6 Si9 S9 O72,0.33370000000000005,{'mp-2713583': <CalcType.GGA_Structure_Optimization: 'GGA Structure Optimization'>}
mp-2713597,Na12 Nb3 In9 Si9 S9 O72,2.0736,{'mp-2713597': <CalcType.GGA_Structure_Optimization: 'GGA Structure Optimization'>}
mp-2713545,Na12 Ta3 Al9 Si9 S9 O72,3.1533,{'mp-2713545': <CalcType.GGA_Structure_Optimization: 'GGA Structure Optimization'>}
mp-2713560,Na12 Y6 Ti6 Si9 S9 O72,1.4906000000000001,{'mp-2713560': <CalcType.GGA_Structure_Optimization: 'GGA Structure Optimization'>}
mp-2713571,Na9 Ca9 Zr3 P3 S15 O72,3.3634,{'mp-2713571': <CalcType.GGA_Structure_Optimization: 'GGA Structure Optimization'>}
mp-2713582,Na12 Ti6 Al6 Si9 S9 O72,1.4926,{'mp-2713582': <CalcType.GGA_Structure_Optimization: 'GGA Structure Optimization'>}
mp-2713589,Na12 Mg3 Ti9 Si9 S9 O72,1.1112,{'mp-2713589': <CalcType.GGA_Structure_Optimization: 'GGA Structure Optimization'>}
mp-2713593,Na12 Ga6 Si9 Sn6 S9 O72,1.218,{'mp-2713593': <CalcType.GGA_Structure_Optimization: 'GGA Structure Optimization'>}
mp-2713493,Na12 Mg9 Ti3 Si3 S15 O72,1.5008,{'mp-2713493': <CalcType.GGA_Structure_Optimization: 'GGA Structure Optimization'>}
mp-2713543,Na12 In6 Si9 Ge6 S9 O72,0.9449000000000001,{'mp-2713543': <CalcType.GGA_Structure_Optimization: 'GGA Structure Optimization'>}
mp-2713549,Na12 Mg6 Ta6 Si9 S9 O72,1.0795,{'mp-2713549': <CalcType.GGA_Structure_Optimization: 'GGA Structure Optimization'>}
mp-2713561,Na9 Ca6 Al6 P3 S15 O72,4.6512,{'mp-2713561': <CalcType.GGA_Structure_Optimization: 'GGA Structure Optimization'>}
mp-2713584,Na15 Ca6 Mg6 P3 S15 O72,4.5131,{'mp-2713584': <CalcType.GGA_Structure_Optimization: 'GGA Structure Optimization'>}
mp-2713516,Na15 Sc9 Si9 Ge3 S9 O72,2.2695,{'mp-2713516': <CalcType.GGA_Structure_Optimization: 'GGA Structure Optimization'>}
mp-2713525,Na15 Al9 Si9 Ge3 S9 O72,2.5681000000000003,{'mp-2713525': <CalcType.GGA_Structure_Optimization: 'GGA Structure Optimization'>}
mp-2713555,Na12 Ta3 Ga9 Si9 S9 O72,2.9892000000000003,{'mp-2713555': <CalcType.GGA_Structure_Optimization: 'GGA Structure Optimization'>}
mp-2713594,Na12 Y6 Si9 Ge6 S9 O72,0.6833,{'mp-2713594': <CalcType.GGA_Structure_Optimization: 'GGA Structure Optimization'>}
mp-2713596,Na12 Zn3 Si9 Ge9 S9 O72,0.029599999999999002,{'mp-2713596': <CalcType.GGA_Structure_Optimization: 'GGA Structure Optimization'>}
mp-2713604,Na12 Zn3 Si9 Sn9 S9 O72,0.262599999999999,{'mp-2713604': <CalcType.GGA_Structure_Optimization: 'GGA Structure Optimization'>}
mp-2713501,Na6 Y6 Nb6 Si9 S9 O72,0.748,{'mp-2713501': <CalcType.GGA_Structure_Optimization: 'GGA Structure Optimization'>}
mp-2713529,Na12 Ca9 Ge3 P6 S12 O72,1.2253,{'mp-2713529': <CalcType.GGA_Structure_Optimization: 'GGA Structure Optimization'>}
mp-2713564,Na12 Mg6 Nb6 Si9 S9 O72,0.40650000000000003,{'mp-2713564': <CalcType.GGA_Structure_Optimization: 'GGA Structure Optimization'>}
mp-2713576,Na12 Zr6 Al6 Si9 S9 O72,3.0794,{'mp-2713576': <CalcType.GGA_Structure_Optimization: 'GGA Structure Optimization'>}
mp-2713592,Na12 La6 Ti6 Si9 S9 O72,1.3294000000000001,{'mp-2713592': <CalcType.GGA_Structure_Optimization: 'GGA Structure Optimization'>}
mp-2713610,Na12 Hf6 Ga6 Si9 S9 O72,2.8263,{'mp-2713610': <CalcType.GGA_Structure_Optimization: 'GGA Structure Optimization'>}
mp-2713559,Na12 Y9 Ta3 Si9 S9 O72,2.9676,{'mp-2713559': <CalcType.GGA_Structure_Optimization: 'GGA Structure Optimization'>}
mp-2713572,Na12 Hf6 Al6 Si9 S9 O72,3.6961999999999993,{'mp-2713572': <CalcType.GGA_Structure_Optimization: 'GGA Structure Optimization'>}
mp-2713599,Na9 Zn6 In6 P3 S15 O72,3.2146999999999992,{'mp-2713599': <CalcType.GGA_Structure_Optimization: 'GGA Structure Optimization'>}
mp-2713631,Na12 Zr6 Sc6 Si9 S9 O72,2.8649,{'mp-2713631': <CalcType.GGA_Structure_Optimization: 'GGA Structure Optimization'>}
mp-2713659,Na12 Sc9 Nb3 Si9 S9 O72,2.215899999999999,{'mp-2713659': <CalcType.GGA_Structure_Optimization: 'GGA Structure Optimization'>}
mp-2713685,Na12 Hf6 In6 Si9 S9 O72,2.591,{'mp-2713685': <CalcType.GGA_Structure_Optimization: 'GGA Structure Optimization'>}
mp-2713708,Na9 Y6 Mg6 P3 S15 O72,4.7491,{'mp-2713708': <CalcType.GGA_Structure_Optimization: 'GGA Structure Optimization'>}
mp-2713642,Na12 La9 Ta3 Si9 S9 O72,3.1666,{'mp-2713642': <CalcType.GGA_Structure_Optimization: 'GGA Structure Optimization'>}
mp-2713650,Na9 Ca6 La6 P3 S15 O72,4.3194,{'mp-2713650': <CalcType.GGA_Structure_Optimization: 'GGA Structure Optimization'>}
mp-2713672,Na12 Nb3 Ga9 Si9 S9 O72,2.4228,{'mp-2713672': <CalcType.GGA_Structure_Optimization: 'GGA Structure Optimization'>}
mp-2713675,Na12 Ca3 Si9 Sn9 S9 O72,0.0,{'mp-2713675': <CalcType.GGA_Structure_Optimization: 'GGA Structure Optimization'>}
mp-2713702,Na12 Ta6 Zn6 Si9 S9 O72,1.1923,{'mp-2713702': <CalcType.GGA_Structure_Optimization: 'GGA Structure Optimization'>}
mp-2713723,Na18 Ca6 Zn6 Si3 S15 O72,3.1338,{'mp-2713723': <CalcType.GGA_Structure_Optimization: 'GGA Structure Optimization'>}
mp-2713651,Na12 Mg3 Zr9 Si9 S9 O72,2.5931,{'mp-2713651': <CalcType.GGA_Structure_Optimization: 'GGA Structure Optimization'>}
mp-2713696,Na12 Ti6 Ga6 Si9 S9 O72,1.4536,{'mp-2713696': <CalcType.GGA_Structure_Optimization: 'GGA Structure Optimization'>}
mp-2713720,Na12 Sc6 Ti6 Si9 S9 O72,1.6048,{'mp-2713720': <CalcType.GGA_Structure_Optimization: 'GGA Structure Optimization'>}
mp-2713625,Na15 Ca6 Zn6 P3 S15 O72,3.7276,{'mp-2713625': <CalcType.GGA_Structure_Optimization: 'GGA Structure Optimization'>}
mp-2713627,Na9 Mg9 Zr3 P3 S15 O72,3.3851,{'mp-2713627': <CalcType.GGA_Structure_Optimization: 'GGA Structure Optimization'>}
mp-2713641,Na9 Zn9 Ge3 P3 S15 O72,1.752,{'mp-2713641': <CalcType.GGA_Structure_Optimization: 'GGA Structure Optimization'>}
mp-2713670,Na12 Mg3 Si9 Sn9 S9 O72,0.1937,{'mp-2713670': <CalcType.GGA_Structure_Optimization: 'GGA Structure Optimization'>}
mp-2713683,Na9 Ca9 Ti3 P3 S15 O72,1.8986,{'mp-2713683': <CalcType.GGA_Structure_Optimization: 'GGA Structure Optimization'>}
mp-2713691,Na12 Y9 Nb3 Si9 S9 O72,1.9043,{'mp-2713691': <CalcType.GGA_Structure_Optimization: 'GGA Structure Optimization'>}
mp-2713700,Na12 La9 Nb3 Si9 S9 O72,1.9883000000000002,{'mp-2713700': <CalcType.GGA_Structure_Optimization: 'GGA Structure Optimization'>}
mp-2713706,Na12 Ga6 Si9 Ge6 S9 O72,0.7994999999999991,{'mp-2713706': <CalcType.GGA_Structure_Optimization: 'GGA Structure Optimization'>}
mp-2713617,Na12 Ta3 In9 Si9 S9 O72,2.761199999999999,{'mp-2713617': <CalcType.GGA_Structure_Optimization: 'GGA Structure Optimization'>}
mp-2713646,Na12 Y6 Si9 Sn6 S9 O72,0.16989999999999902,{'mp-2713646': <CalcType.GGA_Structure_Optimization: 'GGA Structure Optimization'>}
mp-2713649,Na12 Sc6 Si9 Sn6 S9 O72,0.9502,{'mp-2713649': <CalcType.GGA_Structure_Optimization: 'GGA Structure Optimization'>}
mp-2713652,Na12 Zr9 Zn3 Si9 S9 O72,2.4387,{'mp-2713652': <CalcType.GGA_Structure_Optimization: 'GGA Structure Optimization'>}
mp-2713735,Na18 Ta6 In6 Si15 S3 O72,3.009299999999999,{'mp-2713735': <CalcType.GGA_Structure_Optimization: 'GGA Structure Optimization'>}
mp-2713740,Na9 Hf6 Mg6 P9 S9 O72,4.8465,{'mp-2713740': <CalcType.GGA_Structure_Optimization: 'GGA Structure Optimization'>}
mp-2713616,Na12 La6 Si9 Sn6 S9 O72,0.0,{'mp-2713616': <CalcType.GGA_Structure_Optimization: 'GGA Structure Optimization'>}
mp-2713626,Na9 Y6 Zn6 P3 S15 O72,4.1456,{'mp-2713626': <CalcType.GGA_Structure_Optimization: 'GGA Structure Optimization'>}
mp-2713635,Na12 Hf6 Mg2 Ge4 P8 O48,4.205999999999999,{'mp-2713635': <CalcType.GGA_Structure_Optimization: 'GGA Structure Optimization'>}
mp-2713638,Na12 Hf6 Sc6 Si9 S9 O72,3.1062,{'mp-2713638': <CalcType.GGA_Structure_Optimization: 'GGA Structure Optimization'>}
mp-2713647,Na12 La6 Zr6 Si9 S9 O72,2.6012,{'mp-2713647': <CalcType.GGA_Structure_Optimization: 'GGA Structure Optimization'>}
mp-2713666,Na12 Al6 Si9 Sn6 S9 O72,1.569799999999999,{'mp-2713666': <CalcType.GGA_Structure_Optimization: 'GGA Structure Optimization'>}
mp-2713697,Na12 Ti6 In6 Si9 S9 O72,1.3376000000000001,{'mp-2713697': <CalcType.GGA_Structure_Optimization: 'GGA Structure Optimization'>}
mp-2713739,Na9 Ca6 Hf6 P9 S9 O72,4.6995000000000005,{'mp-2713739': <CalcType.GGA_Structure_Optimization: 'GGA Structure Optimization'>}
mp-2713703,Na12 Ca6 Ta6 Si9 S9 O72,1.0911,{'mp-2713703': <CalcType.GGA_Structure_Optimization: 'GGA Structure Optimization'>}
mp-2713711,Na9 Mg6 Sc6 P3 S15 O72,4.073499999999999,{'mp-2713711': <CalcType.GGA_Structure_Optimization: 'GGA Structure Optimization'>}
mp-2713721,Na12 Sc6 Si9 Ge6 S9 O72,0.748599999999999,{'mp-2713721': <CalcType.GGA_Structure_Optimization: 'GGA Structure Optimization'>}
mp-2713727,Na9 Mg6 Zr6 P9 S9 O72,3.9665999999999992,{'mp-2713727': <CalcType.GGA_Structure_Optimization: 'GGA Structure Optimization'>}
mp-2713736,Na9 Sc6 Ga6 P9 S9 O72,3.6588000000000003,{'mp-2713736': <CalcType.GGA_Structure_Optimization: 'GGA Structure Optimization'>}
mp-2713738,Na3 Nb9 Zn3 Si9 S9 O72,1.073599999999999,{'mp-2713738': <CalcType.GGA_Structure_Optimization: 'GGA Structure Optimization'>}
mp-2713709,Na9 Sc6 Zn6 P3 S15 O72,3.9657,{'mp-2713709': <CalcType.GGA_Structure_Optimization: 'GGA Structure Optimization'>}
mp-2713737,Na9 Mg6 Ge6 P9 S9 O72,2.683799999999999,{'mp-2713737': <CalcType.GGA_Structure_Optimization: 'GGA Structure Optimization'>}
mp-2713669,Na12 Hf9 Zn3 Si9 S9 O72,2.9484,{'mp-2713669': <CalcType.GGA_Structure_Optimization: 'GGA Structure Optimization'>}
mp-2713676,Na9 Ca9 Hf3 P3 S15 O72,4.283600000000001,{'mp-2713676': <CalcType.GGA_Structure_Optimization: 'GGA Structure Optimization'>}
mp-2713713,Na12 Nb3 Al9 Si9 S9 O72,2.2729,{'mp-2713713': <CalcType.GGA_Structure_Optimization: 'GGA Structure Optimization'>}
mp-2713798,Na9 Zn6 Ge6 P9 S9 O72,2.6034,{'mp-2713798': <CalcType.GGA_Structure_Optimization: 'GGA Structure Optimization'>}
mp-2713803,Na6 Nb6 In6 Si9 S9 O72,0.5724,{'mp-2713803': <CalcType.GGA_Structure_Optimization: 'GGA Structure Optimization'>}
mp-2713777,Na18 Si15 Sn6 Ge6 S3 O72,2.6976,{'mp-2713777': <CalcType.GGA_Structure_Optimization: 'GGA Structure Optimization'>}
mp-2713793,Na18 Ta6 Ga6 Si15 S3 O72,3.0787,{'mp-2713793': <CalcType.GGA_Structure_Optimization: 'GGA Structure Optimization'>}
mp-2713762,Na18 Nb6 In6 Si15 S3 O72,2.3344,{'mp-2713762': <CalcType.GGA_Structure_Optimization: 'GGA Structure Optimization'>}
mp-2713776,Na9 Sc6 Al6 P9 S9 O72,4.384,{'mp-2713776': <CalcType.GGA_Structure_Optimization: 'GGA Structure Optimization'>}
mp-2713804,Na18 Zr6 Si15 Sn6 S3 O72,3.0236,{'mp-2713804': <CalcType.GGA_Structure_Optimization: 'GGA Structure Optimization'>}
mp-2713807,Na9 Zn6 Sn6 P9 S9 O72,2.7931,{'mp-2713807': <CalcType.GGA_Structure_Optimization: 'GGA Structure Optimization'>}
mp-2713791,Na9 Y6 In6 P9 S9 O72,3.0806,{'mp-2713791': <CalcType.GGA_Structure_Optimization: 'GGA Structure Optimization'>}
mp-2713805,Na6 Hf6 Ti6 Si9 S9 O72,2.4391,{'mp-2713805': <CalcType.GGA_Structure_Optimization: 'GGA Structure Optimization'>}
mp-2713809,Na18 Hf6 Zr6 Si15 S3 O72,4.1906,{'mp-2713809': <CalcType.GGA_Structure_Optimization: 'GGA Structure Optimization'>}
mp-2713760,Na18 La6 Ta6 Si15 S3 O72,2.9879,{'mp-2713760': <CalcType.GGA_Structure_Optimization: 'GGA Structure Optimization'>}
mp-2713778,Na18 Ta6 Al6 Si15 S3 O72,3.0233,{'mp-2713778': <CalcType.GGA_Structure_Optimization: 'GGA Structure Optimization'>}
mp-2713765,Na3 Ta3 Si9 Ge9 S9 O72,1.989399999999999,{'mp-2713765': <CalcType.GGA_Structure_Optimization: 'GGA Structure Optimization'>}
mp-2713767,Na3 Ti9 Nb3 Si9 S9 O72,1.747799999999999,{'mp-2713767': <CalcType.GGA_Structure_Optimization: 'GGA Structure Optimization'>}
mp-2713775,Na9 Y6 Al6 P9 S9 O72,4.668,{'mp-2713775': <CalcType.GGA_Structure_Optimization: 'GGA Structure Optimization'>}
mp-2713806,Na3 Ca3 Nb9 Si9 S9 O72,0.9587999999999991,{'mp-2713806': <CalcType.GGA_Structure_Optimization: 'GGA Structure Optimization'>}
mp-2713812,Na9 Ti6 Zn6 P9 S9 O72,2.3372,{'mp-2713812': <CalcType.GGA_Structure_Optimization: 'GGA Structure Optimization'>}
mp-2713838,Na18 La6 Nb6 Si15 S3 O72,2.1433,{'mp-2713838': <CalcType.GGA_Structure_Optimization: 'GGA Structure Optimization'>}
mp-2713889,Na18 Zr6 Ti6 Si15 S3 O72,2.6081,{'mp-2713889': <CalcType.GGA_Structure_Optimization: 'GGA Structure Optimization'>}
mp-2713899,Na18 Zr6 Si15 Ge6 S3 O72,2.7475,{'mp-2713899': <CalcType.GGA_Structure_Optimization: 'GGA Structure Optimization'>}
mp-2713835,Na18 Y6 Ta6 Si15 S3 O72,2.9969,{'mp-2713835': <CalcType.GGA_Structure_Optimization: 'GGA Structure Optimization'>}
mp-2713862,Na9 La6 Al6 P9 S9 O72,4.2257,{'mp-2713862': <CalcType.GGA_Structure_Optimization: 'GGA Structure Optimization'>}
mp-2713877,Na9 Sc6 In6 P9 S9 O72,3.4329,{'mp-2713877': <CalcType.GGA_Structure_Optimization: 'GGA Structure Optimization'>}
mp-2713905,Na6 Sc6 Nb6 Si9 S9 O72,0.6163000000000001,{'mp-2713905': <CalcType.GGA_Structure_Optimization: 'GGA Structure Optimization'>}
mp-2713907,Na18 Ti6 Si15 Sn6 S3 O72,2.655599999999999,{'mp-2713907': <CalcType.GGA_Structure_Optimization: 'GGA Structure Optimization'>}
mp-2713813,Na3 Zr9 Nb3 Si9 S9 O72,1.7636,{'mp-2713813': <CalcType.GGA_Structure_Optimization: 'GGA Structure Optimization'>}
mp-2713815,Na6 Si9 Sn6 Ge6 S9 O72,0.7146,{'mp-2713815': <CalcType.GGA_Structure_Optimization: 'GGA Structure Optimization'>}
mp-2713816,Na6 Zr6 Si9 Ge6 S9 O72,1.0164,{'mp-2713816': <CalcType.GGA_Structure_Optimization: 'GGA Structure Optimization'>}
mp-2713822,Na6 Nb6 Ga6 Si9 S9 O72,0.7825000000000001,{'mp-2713822': <CalcType.GGA_Structure_Optimization: 'GGA Structure Optimization'>}
mp-2713832,Na3 Hf9 Ta3 Si9 S9 O72,2.3338,{'mp-2713832': <CalcType.GGA_Structure_Optimization: 'GGA Structure Optimization'>}
mp-2713830,Na9 Mg6 Sn6 P9 S9 O72,2.822,{'mp-2713830': <CalcType.GGA_Structure_Optimization: 'GGA Structure Optimization'>}