Material ID,Composition,Band Gap,Calc Types
mp-2716500,Na15 Ta6 Ti6 Si15 P3 O72,2.412099999999999,{'mp-2716500': <CalcType.GGA_Structure_Optimization: 'GGA Structure Optimization'>}
mp-2716508,Na3 La6 Ge6 P9 S9 O72,1.4174,{'mp-2716508': <CalcType.GGA_Structure_Optimization: 'GGA Structure Optimization'>}
mp-2716524,Na9 Ga3 Si9 Sn9 S9 O72,2.142,{'mp-2716524': <CalcType.GGA_Structure_Optimization: 'GGA Structure Optimization'>}
mp-2716497,Na3 Sc9 Nb3 P9 S9 O72,2.068699999999999,{'mp-2716497': <CalcType.GGA_Structure_Optimization: 'GGA Structure Optimization'>}
mp-2716507,Na3 Ca3 Ge9 P9 S9 O72,2.103399999999999,{'mp-2716507': <CalcType.GGA_Structure_Optimization: 'GGA Structure Optimization'>}
mp-2716516,Na15 Nb9 Ga3 Si15 P3 O72,2.5545,{'mp-2716516': <CalcType.GGA_Structure_Optimization: 'GGA Structure Optimization'>}
mp-2716551,Na3 Mg3 Zr9 P9 S9 O72,3.7254,{'mp-2716551': <CalcType.GGA_Structure_Optimization: 'GGA Structure Optimization'>}
mp-2716568,Na3 Sc9 Ta3 P9 S9 O72,2.8737,{'mp-2716568': <CalcType.GGA_Structure_Optimization: 'GGA Structure Optimization'>}
mp-2716535,Na15 Nb9 In3 Si15 P3 O72,2.4029,{'mp-2716535': <CalcType.GGA_Structure_Optimization: 'GGA Structure Optimization'>}
mp-2716543,Na3 Mg3 Ti9 P9 S9 O72,2.194,{'mp-2716543': <CalcType.GGA_Structure_Optimization: 'GGA Structure Optimization'>}
mp-2716561,Na3 Y6 Zr6 P9 S9 O72,3.3811,{'mp-2716561': <CalcType.GGA_Structure_Optimization: 'GGA Structure Optimization'>}
mp-2716520,Na3 Hf9 Zn3 P9 S9 O72,4.4543,{'mp-2716520': <CalcType.GGA_Structure_Optimization: 'GGA Structure Optimization'>}
mp-2716529,Na15 Zr6 Nb6 Si15 P3 O72,2.510799999999999,{'mp-2716529': <CalcType.GGA_Structure_Optimization: 'GGA Structure Optimization'>}
mp-2716534,Na15 Nb6 Si15 Ge6 P3 O72,2.5115,{'mp-2716534': <CalcType.GGA_Structure_Optimization: 'GGA Structure Optimization'>}
mp-2716518,Na15 Ti6 Nb6 Si15 P3 O72,2.3748,{'mp-2716518': <CalcType.GGA_Structure_Optimization: 'GGA Structure Optimization'>}
mp-2716542,Na15 Ta6 Si15 Ge6 P3 O72,2.9768,{'mp-2716542': <CalcType.GGA_Structure_Optimization: 'GGA Structure Optimization'>}
mp-2716546,Na3 Y6 Hf6 P9 S9 O72,4.1691,{'mp-2716546': <CalcType.GGA_Structure_Optimization: 'GGA Structure Optimization'>}
mp-2716565,Na15 Al9 Si9 Sn3 S9 O72,2.6298,{'mp-2716565': <CalcType.GGA_Structure_Optimization: 'GGA Structure Optimization'>}
mp-2716574,Na9 Sc3 Si9 Ge9 S9 O72,1.939099999999999,{'mp-2716574': <CalcType.GGA_Structure_Optimization: 'GGA Structure Optimization'>}
mp-685130,K2 Al4 Fe5 Si5 H4 O24,1.054199999999999,"{'mp-705598': <CalcType.GGA_U_Structure_Optimization: 'GGA+U Structure Optimization'>, 'mp-817844': <CalcType.GGA_U_Static: 'GGA+U Static'>, 'mp-823654': <CalcType.GGA_U_NSCF_Line: 'GGA+U NSCF Line'>, 'mp-1332421': <CalcType.GGA_U_Static: 'GGA+U Static'>, 'mp-824380': <CalcType.GGA_U_NSCF_Line: 'GGA+U NSCF Line'>, 'mp-1937893': <CalcType.GGA_U_Static: 'GGA+U Static'>, 'mp-685130': <CalcType.GGA_Structure_Optimization: 'GGA Structure Optimization'>}"
mp-684921,Na3 Ca1 Al4 Si8 Cl1 O24,4.8258,"{'mp-725253': <CalcType.GGA_Static: 'GGA Static'>, 'mp-684921': <CalcType.GGA_Structure_Optimization: 'GGA Structure Optimization'>, 'mp-738817': <CalcType.GGA_NSCF_Line: 'GGA NSCF Line'>, 'mp-1134187': <CalcType.GGA_Structure_Optimization: 'GGA Structure Optimization'>, 'mp-1251566': <CalcType.GGA_NMR_Electric_Field_Gradient: 'GGA NMR Electric Field Gradient'>, 'mp-1254658': <CalcType.GGA_NMR_Nuclear_Shielding: 'GGA NMR Nuclear Shielding'>, 'mp-1254721': <CalcType.GGA_NMR_Nuclear_Shielding: 'GGA NMR Nuclear Shielding'>, 'mp-1257142': <CalcType.GGA_NMR_Electric_Field_Gradient: 'GGA NMR Electric Field Gradient'>, 'mp-1262007': <CalcType.GGA_Structure_Optimization: 'GGA Structure Optimization'>, 'mp-1265287': <CalcType.GGA_Structure_Optimization: 'GGA Structure Optimization'>, 'mp-1353988': <CalcType.GGA_Static: 'GGA Static'>, 'mp-746338': <CalcType.GGA_NSCF_Line: 'GGA NSCF Line'>, 'mp-1873779': <CalcType.GGA_Static: 'GGA Static'>}"
mp-693753,Ba2 Na10 Ca14 P12 O48 F6,5.0573,"{'mp-725722': <CalcType.GGA_Static: 'GGA Static'>, 'mp-739102': <CalcType.GGA_NSCF_Line: 'GGA NSCF Line'>, 'mp-693753': <CalcType.GGA_Structure_Optimization: 'GGA Structure Optimization'>, 'mp-1365860': <CalcType.GGA_Static: 'GGA Static'>, 'mp-747121': <CalcType.GGA_NSCF_Line: 'GGA NSCF Line'>, 'mp-1848501': <CalcType.GGA_Static: 'GGA Static'>}"
mp-720669,Li4 Ti4 Mn2 Cr4 P12 O48,2.3555,"{'mp-743387': <CalcType.GGA_U_Structure_Optimization: 'GGA+U Structure Optimization'>, 'mp-818296': <CalcType.GGA_U_Static: 'GGA+U Static'>, 'mp-720669': <CalcType.GGA_Structure_Optimization: 'GGA Structure Optimization'>, 'mp-734267': <CalcType.GGA_Static: 'GGA Static'>, 'mp-1919944': <CalcType.GGA_U_Static: 'GGA+U Static'>, 'mp-833861': <CalcType.GGA_Static: 'GGA Static'>}"
mp-720230,Ba8 Na6 Nd6 P12 O48 F4,4.8457,"{'mp-720230': <CalcType.GGA_Structure_Optimization: 'GGA Structure Optimization'>, 'mp-734072': <CalcType.GGA_Static: 'GGA Static'>, 'mp-1337947': <CalcType.GGA_Static: 'GGA Static'>, 'mp-1628829': <CalcType.GGA_NSCF_Line: 'GGA NSCF Line'>, 'mp-1851005': <CalcType.GGA_Static: 'GGA Static'>}"
mp-769069,Na2 Li4 Ti3 Al1 P6 O24,0.0,"{'mp-885281': <CalcType.GGA_Static: 'GGA Static'>, 'mp-769069': <CalcType.GGA_Structure_Optimization: 'GGA Structure Optimization'>, 'mp-900136': <CalcType.GGA_NSCF_Line: 'GGA NSCF Line'>, 'mp-996237': <CalcType.GGA_Static: 'GGA Static'>, 'mp-996666': <CalcType.GGA_NSCF_Line: 'GGA NSCF Line'>, 'mp-1354205': <CalcType.GGA_Static: 'GGA Static'>, 'mp-996830': <CalcType.GGA_NSCF_Line: 'GGA NSCF Line'>, 'mp-1921906': <CalcType.GGA_Static: 'GGA Static'>}"
mp-770640,Li4 Mn3 Nb1 V2 P6 O24,0.47600000000000003,"{'mp-770640': <CalcType.GGA_U_Structure_Optimization: 'GGA+U Structure Optimization'>, 'mp-968114': <CalcType.GGA_U_NSCF_Line: 'GGA+U NSCF Line'>, 'mp-885273': <CalcType.GGA_U_Static: 'GGA+U Static'>, 'mp-1358137': <CalcType.GGA_U_Static: 'GGA+U Static'>, 'mp-1823895': <CalcType.GGA_U_Static: 'GGA+U Static'>}"
mp-745173,Na3 Cd4 P6 H10 Cl3 O24,0.0859,"{'mp-938698': <CalcType.GGA_Static: 'GGA Static'>, 'mp-948881': <CalcType.GGA_NSCF_Line: 'GGA NSCF Line'>, 'mp-949393': <CalcType.GGA_NSCF_Line: 'GGA NSCF Line'>, 'mp-745173': <CalcType.GGA_Structure_Optimization: 'GGA Structure Optimization'>, 'mp-1351684': <CalcType.GGA_Static: 'GGA Static'>, 'mp-1888545': <CalcType.GGA_Static: 'GGA Static'>}"
mp-744690,Na3 Li9 Ti6 Fe6 P18 O72,2.2378,"{'mp-744690': <CalcType.GGA_U_Structure_Optimization: 'GGA+U Structure Optimization'>, 'mp-818672': <CalcType.GGA_U_Static: 'GGA+U Static'>, 'mp-1337571': <CalcType.GGA_U_Static: 'GGA+U Static'>}"
mp-769073,Na2 Li1 Ti3 Al1 P6 O24,2.3538,"{'mp-856551': <CalcType.GGA_NSCF_Line: 'GGA NSCF Line'>, 'mp-769073': <CalcType.GGA_Structure_Optimization: 'GGA Structure Optimization'>, 'mp-852848': <CalcType.GGA_Static: 'GGA Static'>, 'mp-1379230': <CalcType.GGA_Static: 'GGA Static'>, 'mp-857475': <CalcType.GGA_NSCF_Line: 'GGA NSCF Line'>, 'mp-1823174': <CalcType.GGA_Static: 'GGA Static'>}"
mp-770417,Li4 Mn2 V1 Ni3 P6 O24,1.410699999999999,"{'mp-811564': <CalcType.GGA_U_NSCF_Line: 'GGA+U NSCF Line'>, 'mp-770417': <CalcType.GGA_U_Structure_Optimization: 'GGA+U Structure Optimization'>, 'mp-803276': <CalcType.GGA_U_Static: 'GGA+U Static'>, 'mp-1358416': <CalcType.GGA_U_Static: 'GGA+U Static'>, 'mp-812204': <CalcType.GGA_U_NSCF_Line: 'GGA+U NSCF Line'>, 'mp-1655998': <CalcType.GGA_U_Static: 'GGA+U Static'>, 'mp-1822015': <CalcType.GGA_U_Static: 'GGA+U Static'>}"
mp-770860,Li4 Mn2 Fe3 P6 W1 O24,2.1317,"{'mp-770860': <CalcType.GGA_U_Structure_Optimization: 'GGA+U Structure Optimization'>, 'mp-811859': <CalcType.GGA_U_NSCF_Line: 'GGA+U NSCF Line'>, 'mp-803573': <CalcType.GGA_U_Static: 'GGA+U Static'>, 'mp-1354153': <CalcType.GGA_U_Static: 'GGA+U Static'>, 'mp-812483': <CalcType.GGA_U_NSCF_Line: 'GGA+U NSCF Line'>, 'mp-1656098': <CalcType.GGA_U_Static: 'GGA+U Static'>, 'mp-1863333': <CalcType.GGA_U_Static: 'GGA+U Static'>}"
mp-769074,Na2 Li1 Ti3 Al1 P6 O24,2.5293,"{'mp-852860': <CalcType.GGA_Static: 'GGA Static'>, 'mp-856549': <CalcType.GGA_NSCF_Line: 'GGA NSCF Line'>, 'mp-769074': <CalcType.GGA_Structure_Optimization: 'GGA Structure Optimization'>, 'mp-1250471': <CalcType.GGA_Structure_Optimization: 'GGA Structure Optimization'>, 'mp-1255238': <CalcType.GGA_NMR_Nuclear_Shielding: 'GGA NMR Nuclear Shielding'>, 'mp-1257113': <CalcType.GGA_NMR_Electric_Field_Gradient: 'GGA NMR Electric Field Gradient'>, 'mp-1257644': <CalcType.GGA_NMR_Nuclear_Shielding: 'GGA NMR Nuclear Shielding'>, 'mp-1258875': <CalcType.GGA_NMR_Electric_Field_Gradient: 'GGA NMR Electric Field Gradient'>, 'mp-1266507': <CalcType.GGA_Structure_Optimization: 'GGA Structure Optimization'>, 'mp-1359350': <CalcType.GGA_Static: 'GGA Static'>, 'mp-857474': <CalcType.GGA_NSCF_Line: 'GGA NSCF Line'>, 'mp-1816234': <CalcType.GGA_Static: 'GGA Static'>}"
mp-743704,Ca8 Y4 Al14 Cr4 Si2 O48,0.47799999999999904,"{'mp-743704': <CalcType.GGA_U_Structure_Optimization: 'GGA+U Structure Optimization'>, 'mp-818542': <CalcType.GGA_U_Static: 'GGA+U Static'>, 'mp-1248861': <CalcType.GGA_U_NMR_Nuclear_Shielding: 'GGA+U NMR Nuclear Shielding'>, 'mp-1249545': <CalcType.GGA_U_NMR_Electric_Field_Gradient: 'GGA+U NMR Electric Field Gradient'>, 'mp-1249578': <CalcType.GGA_U_Structure_Optimization: 'GGA+U Structure Optimization'>, 'mp-1257098': <CalcType.GGA_U_NMR_Electric_Field_Gradient: 'GGA+U NMR Electric Field Gradient'>, 'mp-1263638': <CalcType.GGA_U_Structure_Optimization: 'GGA+U Structure Optimization'>, 'mp-1331530': <CalcType.GGA_U_Static: 'GGA+U Static'>, 'mp-1871111': <CalcType.GGA_U_Static: 'GGA+U Static'>}"
mp-758445,Li4 Mn3 Cr1 Co2 P6 O24,0.393999999999999,"{'mp-763479': <CalcType.GGA_U_Structure_Optimization: 'GGA+U Structure Optimization'>, 'mp-758445': <CalcType.GGA_Structure_Optimization: 'GGA Structure Optimization'>, 'mp-1356503': <CalcType.GGA_U_Static: 'GGA+U Static'>, 'mp-1822123': <CalcType.GGA_U_Static: 'GGA+U Static'>}"
mp-769552,Li1 Mg1 Cr3 Se2 S4 O24,2.5207,"{'mp-769552': <CalcType.GGA_U_Structure_Optimization: 'GGA+U Structure Optimization'>, 'mp-802760': <CalcType.GGA_U_Static: 'GGA+U Static'>, 'mp-810293': <CalcType.GGA_U_NSCF_Line: 'GGA+U NSCF Line'>, 'mp-785081': <CalcType.GGA_Static: 'GGA Static'>, 'mp-1357709': <CalcType.GGA_U_Static: 'GGA+U Static'>, 'mp-811046': <CalcType.GGA_U_NSCF_Line: 'GGA+U NSCF Line'>, 'mp-832254': <CalcType.GGA_NSCF_Line: 'GGA NSCF Line'>, 'mp-1819705': <CalcType.GGA_U_Static: 'GGA+U Static'>, 'mp-828298': <CalcType.GGA_Static: 'GGA Static'>, 'mp-831895': <CalcType.GGA_NSCF_Line: 'GGA NSCF Line'>}"
mp-775171,Li4 Mn2 Cr1 Ni3 P6 O24,0.0,"{'mp-775171': <CalcType.GGA_U_Structure_Optimization: 'GGA+U Structure Optimization'>, 'mp-887766': <CalcType.GGA_U_Static: 'GGA+U Static'>, 'mp-968115': <CalcType.GGA_U_NSCF_Line: 'GGA+U NSCF Line'>, 'mp-1359429': <CalcType.GGA_U_Static: 'GGA+U Static'>, 'mp-1814394': <CalcType.GGA_U_Static: 'GGA+U Static'>, 'mp-887778': <CalcType.GGA_Static: 'GGA Static'>}"
mp-776529,Na1 Li1 Mn2 Fe4 P6 O24,1.404399999999999,"{'mp-805900': <CalcType.GGA_U_Static: 'GGA+U Static'>, 'mp-777193': <CalcType.GGA_U_Structure_Optimization: 'GGA+U Structure Optimization'>, 'mp-815074': <CalcType.GGA_U_NSCF_Line: 'GGA+U NSCF Line'>, 'mp-776529': <CalcType.GGA_Structure_Optimization: 'GGA Structure Optimization'>, 'mp-1358414': <CalcType.GGA_U_Static: 'GGA+U Static'>, 'mp-815847': <CalcType.GGA_U_NSCF_Line: 'GGA+U NSCF Line'>, 'mp-1821516': <CalcType.GGA_U_Static: 'GGA+U Static'>}"
mp-775323,Li4 Mn3 Cu1 Ni2 P6 O24,0.029500000000000002,"{'mp-902075': <CalcType.GGA_U_NSCF_Line: 'GGA+U NSCF Line'>, 'mp-775323': <CalcType.GGA_U_Structure_Optimization: 'GGA+U Structure Optimization'>, 'mp-887792': <CalcType.GGA_U_Static: 'GGA+U Static'>, 'mp-1360373': <CalcType.GGA_U_Static: 'GGA+U Static'>, 'mp-1657082': <CalcType.GGA_U_Static: 'GGA+U Static'>, 'mp-1819057': <CalcType.GGA_U_Static: 'GGA+U Static'>}"
mp-776576,Li2 Ti2 Mn1 Cr2 P6 O24,2.4217,"{'mp-815201': <CalcType.GGA_U_NSCF_Line: 'GGA+U NSCF Line'>, 'mp-777244': <CalcType.GGA_U_Structure_Optimization: 'GGA+U Structure Optimization'>, 'mp-806003': <CalcType.GGA_U_Static: 'GGA+U Static'>, 'mp-776576': <CalcType.GGA_Structure_Optimization: 'GGA Structure Optimization'>, 'mp-833233': <CalcType.GGA_NSCF_Line: 'GGA NSCF Line'>, 'mp-1355421': <CalcType.GGA_U_Static: 'GGA+U Static'>, 'mp-834180': <CalcType.GGA_NSCF_Line: 'GGA NSCF Line'>, 'mp-815997': <CalcType.GGA_U_NSCF_Line: 'GGA+U NSCF Line'>, 'mp-1821162': <CalcType.GGA_U_Static: 'GGA+U Static'>, 'mp-830712': <CalcType.GGA_Static: 'GGA Static'>}"
mp-771298,Li4 V3 Cr2 Co1 P6 O24,0.5606,"{'mp-771298': <CalcType.GGA_U_Structure_Optimization: 'GGA+U Structure Optimization'>, 'mp-803581': <CalcType.GGA_U_Static: 'GGA+U Static'>, 'mp-811863': <CalcType.GGA_U_NSCF_Line: 'GGA+U NSCF Line'>, 'mp-1361142': <CalcType.GGA_U_Static: 'GGA+U Static'>, 'mp-812482': <CalcType.GGA_U_NSCF_Line: 'GGA+U NSCF Line'>, 'mp-1659546': <CalcType.GGA_U_Static: 'GGA+U Static'>, 'mp-1880246': <CalcType.GGA_U_Static: 'GGA+U Static'>, 'mp-885247': <CalcType.GGA_Static: 'GGA Static'>}"
mp-773757,Na2 Li5 Ti3 Fe1 P6 O24,0.09740000000000001,"{'mp-1928375': <CalcType.GGA_U_Static: 'GGA+U Static'>, 'mp-773757': <CalcType.GGA_Structure_Optimization: 'GGA Structure Optimization'>}"
mp-776523,Na1 Li3 Ti2 Al2 P6 O24,2.5346,"{'mp-776523': <CalcType.GGA_Structure_Optimization: 'GGA Structure Optimization'>, 'mp-793630': <CalcType.GGA_NSCF_Line: 'GGA NSCF Line'>, 'mp-787855': <CalcType.GGA_Static: 'GGA Static'>, 'mp-1250004': <CalcType.GGA_Structure_Optimization: 'GGA Structure Optimization'>, 'mp-1254989': <CalcType.GGA_NMR_Nuclear_Shielding: 'GGA NMR Nuclear Shielding'>, 'mp-1256289': <CalcType.GGA_NMR_Electric_Field_Gradient: 'GGA NMR Electric Field Gradient'>, 'mp-1379098': <CalcType.GGA_Static: 'GGA Static'>, 'mp-793930': <CalcType.GGA_NSCF_Line: 'GGA NSCF Line'>, 'mp-1818900': <CalcType.GGA_Static: 'GGA Static'>}"
mp-773018,Li2 Mg1 Cr3 Se3 S3 O24,0.6478,"{'mp-773983': <CalcType.GGA_U_Structure_Optimization: 'GGA+U Structure Optimization'>, 'mp-804760': <CalcType.GGA_U_Static: 'GGA+U Static'>, 'mp-813507': <CalcType.GGA_U_NSCF_Line: 'GGA+U NSCF Line'>, 'mp-773018': <CalcType.GGA_Structure_Optimization: 'GGA Structure Optimization'>, 'mp-1357108': <CalcType.GGA_U_Static: 'GGA+U Static'>, 'mp-814273': <CalcType.GGA_U_NSCF_Line: 'GGA+U NSCF Line'>, 'mp-887128': <CalcType.GGA_Static: 'GGA Static'>, 'mp-1682109': <CalcType.GGA_U_NSCF_Uniform: 'GGA+U NSCF Uniform'>, 'mp-1823706': <CalcType.GGA_U_Static: 'GGA+U Static'>}"
mp-776566,Li4 Mn3 Nb1 Cr2 P6 O24,0.4399,"{'mp-776566': <CalcType.GGA_U_Structure_Optimization: 'GGA+U Structure Optimization'>, 'mp-888731': <CalcType.GGA_U_Static: 'GGA+U Static'>, 'mp-902629': <CalcType.GGA_U_NSCF_Line: 'GGA+U NSCF Line'>, 'mp-1356806': <CalcType.GGA_U_Static: 'GGA+U Static'>, 'mp-1769118': <CalcType.GGA_U_Static: 'GGA+U Static'>, 'mp-1824309': <CalcType.GGA_U_Static: 'GGA+U Static'>}"
mp-780843,Li4 Fe2 Ni3 Sn1 P6 O24,3.0536,"{'mp-781476': <CalcType.GGA_U_Structure_Optimization: 'GGA+U Structure Optimization'>, 'mp-780843': <CalcType.GGA_Structure_Optimization: 'GGA Structure Optimization'>, 'mp-1353998': <CalcType.GGA_U_Static: 'GGA+U Static'>, 'mp-1656321': <CalcType.GGA_U_Static: 'GGA+U Static'>, 'mp-1861647': <CalcType.GGA_U_Static: 'GGA+U Static'>}"
mp-776757,Li4 Co2 Ni3 Sn1 P6 O24,2.5939,"{'mp-776757': <CalcType.GGA_U_Structure_Optimization: 'GGA+U Structure Optimization'>, 'mp-805728': <CalcType.GGA_U_Static: 'GGA+U Static'>, 'mp-814715': <CalcType.GGA_U_NSCF_Line: 'GGA+U NSCF Line'>, 'mp-1357206': <CalcType.GGA_U_Static: 'GGA+U Static'>, 'mp-815486': <CalcType.GGA_U_NSCF_Line: 'GGA+U NSCF Line'>, 'mp-1659090': <CalcType.GGA_U_Static: 'GGA+U Static'>}"
mp-778251,Li4 Ti1 Co2 Ni3 P6 O24,2.3307,"{'mp-778251': <CalcType.GGA_U_Structure_Optimization: 'GGA+U Structure Optimization'>, 'mp-806987': <CalcType.GGA_U_Static: 'GGA+U Static'>, 'mp-815660': <CalcType.GGA_U_NSCF_Line: 'GGA+U NSCF Line'>, 'mp-1356458': <CalcType.GGA_U_Static: 'GGA+U Static'>, 'mp-816287': <CalcType.GGA_U_NSCF_Line: 'GGA+U NSCF Line'>, 'mp-1816976': <CalcType.GGA_U_Static: 'GGA+U Static'>}"
mp-778614,Li4 Cr2 Ni3 Sn1 P6 O24,2.004399999999999,"{'mp-778614': <CalcType.GGA_U_Structure_Optimization: 'GGA+U Structure Optimization'>, 'mp-807096': <CalcType.GGA_U_Static: 'GGA+U Static'>, 'mp-815836': <CalcType.GGA_U_NSCF_Line: 'GGA+U NSCF Line'>, 'mp-1355507': <CalcType.GGA_U_Static: 'GGA+U Static'>, 'mp-816592': <CalcType.GGA_U_NSCF_Line: 'GGA+U NSCF Line'>, 'mp-1817310': <CalcType.GGA_U_Static: 'GGA+U Static'>}"
mp-778677,Li4 Ti1 Fe3 Cu2 P6 O24,0.2187,"{'mp-778677': <CalcType.GGA_U_Structure_Optimization: 'GGA+U Structure Optimization'>, 'mp-894456': <CalcType.GGA_U_Static: 'GGA+U Static'>, 'mp-902628': <CalcType.GGA_U_NSCF_Line: 'GGA+U NSCF Line'>, 'mp-1379132': <CalcType.GGA_U_Static: 'GGA+U Static'>, 'mp-1928706': <CalcType.GGA_U_Static: 'GGA+U Static'>}"
mp-776611,Li4 Mn2 Nb1 Ni3 P6 O24,0.4912,"{'mp-776611': <CalcType.GGA_U_Structure_Optimization: 'GGA+U Structure Optimization'>, 'mp-805681': <CalcType.GGA_U_Static: 'GGA+U Static'>, 'mp-814677': <CalcType.GGA_U_NSCF_Line: 'GGA+U NSCF Line'>, 'mp-1354628': <CalcType.GGA_U_Static: 'GGA+U Static'>, 'mp-815440': <CalcType.GGA_U_NSCF_Line: 'GGA+U NSCF Line'>, 'mp-1657181': <CalcType.GGA_U_Static: 'GGA+U Static'>, 'mp-1819018': <CalcType.GGA_U_Static: 'GGA+U Static'>}"
mp-776752,Li4 Mn2 Fe3 Sb1 P6 O24,1.1094,"{'mp-776752': <CalcType.GGA_U_Structure_Optimization: 'GGA+U Structure Optimization'>, 'mp-814897': <CalcType.GGA_U_NSCF_Line: 'GGA+U NSCF Line'>, 'mp-805839': <CalcType.GGA_U_Static: 'GGA+U Static'>, 'mp-1356215': <CalcType.GGA_U_Static: 'GGA+U Static'>, 'mp-815596': <CalcType.GGA_U_NSCF_Line: 'GGA+U NSCF Line'>, 'mp-1825720': <CalcType.GGA_U_Static: 'GGA+U Static'>}"
mp-776777,Li4 Cr1 Co2 Ni3 P6 O24,0.0,"{'mp-776777': <CalcType.GGA_U_Structure_Optimization: 'GGA+U Structure Optimization'>, 'mp-888714': <CalcType.GGA_U_Static: 'GGA+U Static'>, 'mp-902616': <CalcType.GGA_U_NSCF_Line: 'GGA+U NSCF Line'>, 'mp-1361208': <CalcType.GGA_U_Static: 'GGA+U Static'>, 'mp-1657892': <CalcType.GGA_U_Static: 'GGA+U Static'>, 'mp-1874913': <CalcType.GGA_U_Static: 'GGA+U Static'>}"
mp-778261,Li4 Ti1 Mn3 Cr2 P6 O24,1.1419,"{'mp-778261': <CalcType.GGA_U_Structure_Optimization: 'GGA+U Structure Optimization'>, 'mp-806999': <CalcType.GGA_U_Static: 'GGA+U Static'>, 'mp-815681': <CalcType.GGA_U_NSCF_Line: 'GGA+U NSCF Line'>, 'mp-1380129': <CalcType.GGA_U_Static: 'GGA+U Static'>, 'mp-816299': <CalcType.GGA_U_NSCF_Line: 'GGA+U NSCF Line'>, 'mp-1823801': <CalcType.GGA_U_Static: 'GGA+U Static'>}"
mp-776756,Li4 Ti1 Mn2 Ni3 P6 O24,2.2628,"{'mp-776756': <CalcType.GGA_U_Structure_Optimization: 'GGA+U Structure Optimization'>, 'mp-805832': <CalcType.GGA_U_Static: 'GGA+U Static'>, 'mp-814899': <CalcType.GGA_U_NSCF_Line: 'GGA+U NSCF Line'>, 'mp-1360170': <CalcType.GGA_U_Static: 'GGA+U Static'>, 'mp-834028': <CalcType.GGA_NSCF_Line: 'GGA NSCF Line'>, 'mp-815607': <CalcType.GGA_U_NSCF_Line: 'GGA+U NSCF Line'>, 'mp-1659490': <CalcType.GGA_U_Static: 'GGA+U Static'>, 'mp-1822732': <CalcType.GGA_U_Static: 'GGA+U Static'>, 'mp-787688': <CalcType.GGA_Static: 'GGA Static'>, 'mp-829917': <CalcType.GGA_Static: 'GGA Static'>, 'mp-833113': <CalcType.GGA_NSCF_Line: 'GGA NSCF Line'>}"
mp-778249,Li4 Ti1 Ni3 Sn2 P6 O24,2.3485,"{'mp-778249': <CalcType.GGA_U_Structure_Optimization: 'GGA+U Structure Optimization'>, 'mp-1658834': <CalcType.GGA_U_Static: 'GGA+U Static'>, 'mp-1824523': <CalcType.GGA_U_Static: 'GGA+U Static'>}"
mp-779026,Li4 Mn1 Cr2 Fe3 P6 O24,1.1511,"{'mp-779026': <CalcType.GGA_U_Structure_Optimization: 'GGA+U Structure Optimization'>, 'mp-807196': <CalcType.GGA_U_Static: 'GGA+U Static'>, 'mp-816098': <CalcType.GGA_U_NSCF_Line: 'GGA+U NSCF Line'>, 'mp-1357839': <CalcType.GGA_U_Static: 'GGA+U Static'>, 'mp-816905': <CalcType.GGA_U_NSCF_Line: 'GGA+U NSCF Line'>, 'mp-1825433': <CalcType.GGA_U_Static: 'GGA+U Static'>}"