Material ID,Composition,Band Gap,Calc Types
mp-720205,Sr6 Tm6 Al8 Si16 N34 O8,1.612,"{'mp-738238': <CalcType.GGA_NSCF_Line: 'GGA NSCF Line'>, 'mp-734109': <CalcType.GGA_Static: 'GGA Static'>, 'mp-720205': <CalcType.GGA_Structure_Optimization: 'GGA Structure Optimization'>, 'mp-1173216': <CalcType.GGA_Structure_Optimization: 'GGA Structure Optimization'>, 'mp-1248558': <CalcType.GGA_Structure_Optimization: 'GGA Structure Optimization'>, 'mp-1250653': <CalcType.GGA_Structure_Optimization: 'GGA Structure Optimization'>, 'mp-1252165': <CalcType.GGA_NMR_Electric_Field_Gradient: 'GGA NMR Electric Field Gradient'>, 'mp-1255817': <CalcType.GGA_NMR_Nuclear_Shielding: 'GGA NMR Nuclear Shielding'>, 'mp-1258913': <CalcType.GGA_NMR_Nuclear_Shielding: 'GGA NMR Nuclear Shielding'>, 'mp-1259614': <CalcType.GGA_NMR_Electric_Field_Gradient: 'GGA NMR Electric Field Gradient'>, 'mp-1333666': <CalcType.GGA_Static: 'GGA Static'>, 'mp-745464': <CalcType.GGA_NSCF_Line: 'GGA NSCF Line'>, 'mp-1851289': <CalcType.GGA_Static: 'GGA Static'>}"
mp-720519,K2 Cd4 H16 C20 N30 O8,0.014900000000000002,"{'mp-720519': <CalcType.GGA_Structure_Optimization: 'GGA Structure Optimization'>, 'mp-733704': <CalcType.GGA_Static: 'GGA Static'>, 'mp-1336557': <CalcType.GGA_Static: 'GGA Static'>, 'mp-1850641': <CalcType.GGA_Static: 'GGA Static'>}"
mp-2230815,La5 Mg1 Cu4 P4 Cl2 O4,0.0,{'mp-2230815': <CalcType.GGA_Structure_Optimization: 'GGA Structure Optimization'>}
mp-1181454,K8 Tc4 C8 S16 N4 O16,1.5891000000000002,"{'mp-1181454': <CalcType.GGA_Structure_Optimization: 'GGA Structure Optimization'>, 'mp-1848572': <CalcType.GGA_Static: 'GGA Static'>}"
mp-1182659,Cu4 H28 C12 S4 N12 O16,0.013800000000000002,"{'mp-1182659': <CalcType.GGA_Structure_Optimization: 'GGA Structure Optimization'>, 'mp-1327333': <CalcType.GGA_Static: 'GGA Static'>, 'mp-1849323': <CalcType.GGA_Static: 'GGA Static'>}"
mp-1182729,Ca2 H32 C8 N16 Cl4 O8,5.0849,"{'mp-1182729': <CalcType.GGA_Structure_Optimization: 'GGA Structure Optimization'>, 'mp-1238649': <CalcType.GGA_Structure_Optimization: 'GGA Structure Optimization'>, 'mp-1359699': <CalcType.GGA_Static: 'GGA Static'>, 'mp-1684570': <CalcType.GGA_NSCF_Uniform: 'GGA NSCF Uniform'>, 'mp-1887923': <CalcType.GGA_Static: 'GGA Static'>}"
mp-1195079,Na8 C16 S16 N8 O32 F48,6.184699999999999,"{'mp-1195079': <CalcType.GGA_Structure_Optimization: 'GGA Structure Optimization'>, 'mp-1335962': <CalcType.GGA_Static: 'GGA Static'>}"
mp-1194882,Ba4 Mn4 P4 Cl4 O16 F4,2.460099999999999,"{'mp-1194882': <CalcType.GGA_U_Structure_Optimization: 'GGA+U Structure Optimization'>, 'mp-1400733': <CalcType.GGA_U_Static: 'GGA+U Static'>, 'mp-1733389': <CalcType.GGA_U_NSCF_Uniform: 'GGA+U NSCF Uniform'>, 'mp-1866986': <CalcType.GGA_U_Static: 'GGA+U Static'>}"
mp-1196721,Co4 H80 I4 N24 Cl8 O16,3.4728,"{'mp-1196721': <CalcType.GGA_U_Structure_Optimization: 'GGA+U Structure Optimization'>, 'mp-1985197': <CalcType.GGA_U_Static: 'GGA+U Static'>}"
mp-1196828,Na4 Li4 Mg4 P4 O16 F4,5.1228,"{'mp-1196828': <CalcType.GGA_Structure_Optimization: 'GGA Structure Optimization'>, 'mp-1197855': <CalcType.GGA_Structure_Optimization: 'GGA Structure Optimization'>, 'mp-1391711': <CalcType.GGA_Static: 'GGA Static'>, 'mp-1837799': <CalcType.GGA_Static: 'GGA Static'>}"
mp-1197408,Fe4 H48 C24 N4 Cl8 O16,2.4976000000000003,"{'mp-1197408': <CalcType.GGA_U_Structure_Optimization: 'GGA+U Structure Optimization'>, 'mp-1200000': <CalcType.GGA_U_Structure_Optimization: 'GGA+U Structure Optimization'>, 'mp-1333794': <CalcType.GGA_U_Static: 'GGA+U Static'>}"
mp-1198138,Sn4 H16 S4 N4 O16 F4,4.0695,"{'mp-1198138': <CalcType.GGA_Structure_Optimization: 'GGA Structure Optimization'>, 'mp-1891064': <CalcType.GGA_Static: 'GGA Static'>, 'mp-1983420': <CalcType.GGA_Static: 'GGA Static'>}"
mp-1199292,K4 B4 H16 C16 N32 O16,2.731,"{'mp-1199292': <CalcType.GGA_Structure_Optimization: 'GGA Structure Optimization'>, 'mp-1847608': <CalcType.GGA_Static: 'GGA Static'>}"
mp-1199373,Ag8 H64 C24 S16 Cl8 O32,3.3939,"{'mp-1199373': <CalcType.GGA_Structure_Optimization: 'GGA Structure Optimization'>, 'mp-1985247': <CalcType.GGA_Static: 'GGA Static'>}"
mp-1201006,P8 H72 W4 C24 Cl8 O16,3.8953,"{'mp-1201006': <CalcType.GGA_U_Structure_Optimization: 'GGA+U Structure Optimization'>, 'mp-1982509': <CalcType.GGA_U_Static: 'GGA+U Static'>}"
mp-1200250,Na4 Li4 Ni4 P4 O16 F4,4.5594,"{'mp-1200250': <CalcType.GGA_U_Structure_Optimization: 'GGA+U Structure Optimization'>, 'mp-1393061': <CalcType.GGA_U_Static: 'GGA+U Static'>, 'mp-1837673': <CalcType.GGA_U_Static: 'GGA+U Static'>}"
mp-1200994,Co2 H16 C4 N8 Cl4 O8,0.44630000000000003,"{'mp-1200994': <CalcType.GGA_U_Structure_Optimization: 'GGA+U Structure Optimization'>, 'mp-1238431': <CalcType.GGA_U_Structure_Optimization: 'GGA+U Structure Optimization'>, 'mp-1365578': <CalcType.GGA_U_Static: 'GGA+U Static'>, 'mp-1927960': <CalcType.GGA_U_Static: 'GGA+U Static'>}"
mp-1201772,Mo4 H48 C16 S8 Br8 O16,2.5453,"{'mp-1201772': <CalcType.GGA_U_Structure_Optimization: 'GGA+U Structure Optimization'>, 'mp-1331590': <CalcType.GGA_U_Static: 'GGA+U Static'>, 'mp-1629309': <CalcType.GGA_U_NSCF_Line: 'GGA+U NSCF Line'>}"
mp-1203517,Cs4 H24 C8 S8 N4 O16,5.2633,"{'mp-1203517': <CalcType.GGA_Structure_Optimization: 'GGA Structure Optimization'>, 'mp-1379214': <CalcType.GGA_Static: 'GGA Static'>, 'mp-1851184': <CalcType.GGA_Static: 'GGA Static'>}"
mp-1203692,Mn4 H32 S4 N8 O16 F12,1.5799999999999992,"{'mp-1203692': <CalcType.GGA_U_Structure_Optimization: 'GGA+U Structure Optimization'>, 'mp-1238011': <CalcType.GGA_U_Structure_Optimization: 'GGA+U Structure Optimization'>, 'mp-1351165': <CalcType.GGA_U_Static: 'GGA+U Static'>, 'mp-1659021': <CalcType.GGA_U_Static: 'GGA+U Static'>, 'mp-1937405': <CalcType.GGA_U_Static: 'GGA+U Static'>}"
mp-1238095,Sn4 H16 S4 N4 O16 F4,3.3794,"{'mp-1238095': <CalcType.GGA_Structure_Optimization: 'GGA Structure Optimization'>, 'mp-1349509': <CalcType.GGA_Static: 'GGA Static'>, 'mp-1686029': <CalcType.GGA_NSCF_Uniform: 'GGA NSCF Uniform'>, 'mp-1892419': <CalcType.GGA_Static: 'GGA Static'>}"
mp-24179,K4 H24 C8 S8 N4 O16,5.4962,"{'mp-860637': <CalcType.GGA_NSCF_Line: 'GGA NSCF Line'>, 'mp-728576': <CalcType.GGA_Static: 'GGA Static'>, 'mp-24179': <CalcType.GGA_Structure_Optimization: 'GGA Structure Optimization'>, 'mp-1357416': <CalcType.GGA_Static: 'GGA Static'>, 'mp-737711': <CalcType.GGA_NSCF_Line: 'GGA NSCF Line'>, 'mp-1886649': <CalcType.GGA_Static: 'GGA Static'>}"
mp-24180,Rb4 H24 C8 S8 N4 O16,5.3703,"{'mp-726477': <CalcType.GGA_Static: 'GGA Static'>, 'mp-860104': <CalcType.GGA_NSCF_Line: 'GGA NSCF Line'>, 'mp-24180': <CalcType.GGA_Structure_Optimization: 'GGA Structure Optimization'>, 'mp-1356591': <CalcType.GGA_Static: 'GGA Static'>, 'mp-747431': <CalcType.GGA_NSCF_Line: 'GGA NSCF Line'>, 'mp-1909371': <CalcType.GGA_Static: 'GGA Static'>}"
mp-556025,Mg2 H16 C4 S4 N4 O8,4.4367,"{'mp-655747': <CalcType.GGA_Static: 'GGA Static'>, 'mp-658975': <CalcType.GGA_NSCF_Line: 'GGA NSCF Line'>, 'mp-684360': <CalcType.GGA_NSCF_Line: 'GGA NSCF Line'>, 'mp-556025': <CalcType.GGA_Structure_Optimization: 'GGA Structure Optimization'>, 'mp-1443886': <CalcType.GGA_Static: 'GGA Static'>, 'mp-1823502': <CalcType.GGA_Static: 'GGA Static'>}"
mp-559029,Rb8 C16 S16 N8 O32 F32,4.928,"{'mp-668548': <CalcType.GGA_Static: 'GGA Static'>, 'mp-710165': <CalcType.GGA_NSCF_Line: 'GGA NSCF Line'>, 'mp-843676': <CalcType.GGA_NSCF_Line: 'GGA NSCF Line'>, 'mp-559029': <CalcType.GGA_Structure_Optimization: 'GGA Structure Optimization'>, 'mp-1337563': <CalcType.GGA_Static: 'GGA Static'>, 'mp-845665': <CalcType.GGA_NSCF_Line: 'GGA NSCF Line'>}"
mp-558845,P4 H40 C12 N8 O16 F4,5.1728,"{'mp-1331453': <CalcType.GGA_Static: 'GGA Static'>, 'mp-1895619': <CalcType.GGA_Static: 'GGA Static'>, 'mp-663053': <CalcType.GGA_NSCF_Line: 'GGA NSCF Line'>, 'mp-678238': <CalcType.GGA_NSCF_Line: 'GGA NSCF Line'>, 'mp-657258': <CalcType.GGA_Static: 'GGA Static'>, 'mp-558845': <CalcType.GGA_Structure_Optimization: 'GGA Structure Optimization'>}"
mp-559674,P4 H64 C24 S8 N4 O16,4.4868,"{'mp-680838': <CalcType.GGA_NSCF_Line: 'GGA NSCF Line'>, 'mp-665597': <CalcType.GGA_Static: 'GGA Static'>, 'mp-559674': <CalcType.GGA_Structure_Optimization: 'GGA Structure Optimization'>, 'mp-1365795': <CalcType.GGA_Static: 'GGA Static'>, 'mp-1000060': <CalcType.GGA_NSCF_Line: 'GGA NSCF Line'>, 'mp-1848532': <CalcType.GGA_Static: 'GGA Static'>, 'mp-1629272': <CalcType.GGA_NSCF_Line: 'GGA NSCF Line'>}"
mp-558954,Na8 Sr8 Al8 P4 O16 F36,6.0015,"{'mp-730383': <CalcType.GGA_Static: 'GGA Static'>, 'mp-847961': <CalcType.GGA_NSCF_Line: 'GGA NSCF Line'>, 'mp-558954': <CalcType.GGA_Structure_Optimization: 'GGA Structure Optimization'>, 'mp-1252460': <CalcType.GGA_Structure_Optimization: 'GGA Structure Optimization'>, 'mp-1253048': <CalcType.GGA_NMR_Nuclear_Shielding: 'GGA NMR Nuclear Shielding'>, 'mp-1253861': <CalcType.GGA_NMR_Electric_Field_Gradient: 'GGA NMR Electric Field Gradient'>, 'mp-1324426': <CalcType.GGA_Static: 'GGA Static'>, 'mp-749246': <CalcType.GGA_NSCF_Line: 'GGA NSCF Line'>, 'mp-1845195': <CalcType.GGA_Static: 'GGA Static'>}"
mp-561270,Sn4 H16 C8 N4 O16 F4,2.6803,"{'mp-654696': <CalcType.GGA_Static: 'GGA Static'>, 'mp-655125': <CalcType.GGA_NSCF_Line: 'GGA NSCF Line'>, 'mp-657690': <CalcType.GGA_NSCF_Line: 'GGA NSCF Line'>, 'mp-561270': <CalcType.GGA_Structure_Optimization: 'GGA Structure Optimization'>, 'mp-1375136': <CalcType.GGA_Static: 'GGA Static'>, 'mp-1886336': <CalcType.GGA_Static: 'GGA Static'>}"
mp-561754,K4 Ga4 Co4 C16 Cl12 O16,3.7405,"{'mp-835402': <CalcType.GGA_Static: 'GGA Static'>, 'mp-836490': <CalcType.GGA_NSCF_Line: 'GGA NSCF Line'>, 'mp-1331099': <CalcType.GGA_U_Static: 'GGA+U Static'>, 'mp-1845987': <CalcType.GGA_U_Static: 'GGA+U Static'>, 'mp-845345': <CalcType.GGA_U_NSCF_Line: 'GGA+U NSCF Line'>, 'mp-681883': <CalcType.GGA_U_Static: 'GGA+U Static'>, 'mp-627383': <CalcType.GGA_U_Structure_Optimization: 'GGA+U Structure Optimization'>, 'mp-561754': <CalcType.GGA_Structure_Optimization: 'GGA Structure Optimization'>, 'mp-837674': <CalcType.GGA_NSCF_Line: 'GGA NSCF Line'>}"
mp-601228,Na4 H8 C4 S4 O16 F12,3.1436,"{'mp-601228': <CalcType.GGA_Structure_Optimization: 'GGA Structure Optimization'>, 'mp-1179972': <CalcType.GGA_Structure_Optimization: 'GGA Structure Optimization'>, 'mp-1347667': <CalcType.GGA_Static: 'GGA Static'>, 'mp-1868538': <CalcType.GGA_Static: 'GGA Static'>}"
mp-690708,K4 Li4 P4 H8 O16 F4,5.138,"{'mp-690708': <CalcType.GGA_Structure_Optimization: 'GGA Structure Optimization'>, 'mp-848808': <CalcType.GGA_NSCF_Line: 'GGA NSCF Line'>, 'mp-725066': <CalcType.GGA_Static: 'GGA Static'>, 'mp-1383741': <CalcType.GGA_Static: 'GGA Static'>, 'mp-739893': <CalcType.GGA_NSCF_Line: 'GGA NSCF Line'>, 'mp-1824464': <CalcType.GGA_Static: 'GGA Static'>}"
mp-650524,Sb12 S8 Xe4 N4 O16 F72,1.6989,"{'mp-697475': <CalcType.GGA_Static: 'GGA Static'>, 'mp-846660': <CalcType.GGA_NSCF_Line: 'GGA NSCF Line'>, 'mp-718445': <CalcType.GGA_NSCF_Line: 'GGA NSCF Line'>, 'mp-650524': <CalcType.GGA_Structure_Optimization: 'GGA Structure Optimization'>, 'mp-1338155': <CalcType.GGA_Static: 'GGA Static'>}"
mp-696990,Na4 P4 H12 C8 N12 O16,3.6166,"{'mp-999889': <CalcType.GGA_NSCF_Line: 'GGA NSCF Line'>, 'mp-732295': <CalcType.GGA_Static: 'GGA Static'>, 'mp-696990': <CalcType.GGA_Structure_Optimization: 'GGA Structure Optimization'>, 'mp-1180368': <CalcType.GGA_Structure_Optimization: 'GGA Structure Optimization'>, 'mp-1376976': <CalcType.GGA_Static: 'GGA Static'>, 'mp-1000004': <CalcType.GGA_NSCF_Line: 'GGA NSCF Line'>, 'mp-750387': <CalcType.GGA_NSCF_Line: 'GGA NSCF Line'>, 'mp-1679877': <CalcType.GGA_NSCF_Uniform: 'GGA NSCF Uniform'>, 'mp-1887755': <CalcType.GGA_Static: 'GGA Static'>}"
mp-705524,Cu4 H28 C12 S4 N12 O16,0.1758,"{'mp-705524': <CalcType.GGA_Structure_Optimization: 'GGA Structure Optimization'>, 'mp-864065': <CalcType.GGA_NSCF_Line: 'GGA NSCF Line'>, 'mp-728072': <CalcType.GGA_Static: 'GGA Static'>, 'mp-1350592': <CalcType.GGA_Static: 'GGA Static'>, 'mp-737344': <CalcType.GGA_NSCF_Line: 'GGA NSCF Line'>, 'mp-1894179': <CalcType.GGA_Static: 'GGA Static'>}"
mp-699477,Na4 H24 Ru4 N4 Cl16 O16,0.23689999999999903,"{'mp-727213': <CalcType.GGA_Static: 'GGA Static'>, 'mp-860581': <CalcType.GGA_NSCF_Line: 'GGA NSCF Line'>, 'mp-699477': <CalcType.GGA_Structure_Optimization: 'GGA Structure Optimization'>, 'mp-1180410': <CalcType.GGA_Structure_Optimization: 'GGA Structure Optimization'>, 'mp-1329737': <CalcType.GGA_Static: 'GGA Static'>, 'mp-747247': <CalcType.GGA_NSCF_Line: 'GGA NSCF Line'>}"
mp-707071,Zn2 H20 C8 N12 Cl4 O8,4.5759,"{'mp-728569': <CalcType.GGA_Static: 'GGA Static'>, 'mp-707071': <CalcType.GGA_Structure_Optimization: 'GGA Structure Optimization'>, 'mp-864120': <CalcType.GGA_NSCF_Line: 'GGA NSCF Line'>, 'mp-1345712': <CalcType.GGA_Static: 'GGA Static'>, 'mp-737684': <CalcType.GGA_NSCF_Line: 'GGA NSCF Line'>, 'mp-1937320': <CalcType.GGA_Static: 'GGA Static'>}"
mp-708184,H40 C20 S8 N8 O16 F24,5.8948,"{'mp-708184': <CalcType.GGA_Structure_Optimization: 'GGA Structure Optimization'>, 'mp-864186': <CalcType.GGA_NSCF_Line: 'GGA NSCF Line'>, 'mp-729047': <CalcType.GGA_Static: 'GGA Static'>, 'mp-1336241': <CalcType.GGA_Static: 'GGA Static'>, 'mp-737324': <CalcType.GGA_NSCF_Line: 'GGA NSCF Line'>, 'mp-1629433': <CalcType.GGA_NSCF_Line: 'GGA NSCF Line'>}"
mp-728733,Co2 H36 C8 N16 Cl8 O8,2.3349,"{'mp-744629': <CalcType.GGA_U_Structure_Optimization: 'GGA+U Structure Optimization'>, 'mp-798389': <CalcType.GGA_U_Static: 'GGA+U Static'>, 'mp-799023': <CalcType.GGA_U_NSCF_Line: 'GGA+U NSCF Line'>, 'mp-728733': <CalcType.GGA_Static: 'GGA Static'>, 'mp-1351325': <CalcType.GGA_U_Static: 'GGA+U Static'>, 'mp-799865': <CalcType.GGA_U_NSCF_Line: 'GGA+U NSCF Line'>, 'mp-828942': <CalcType.GGA_NSCF_Line: 'GGA NSCF Line'>, 'mp-826052': <CalcType.GGA_Static: 'GGA Static'>, 'mp-826916': <CalcType.GGA_NSCF_Line: 'GGA NSCF Line'>, 'mp-1686333': <CalcType.GGA_U_NSCF_Uniform: 'GGA+U NSCF Uniform'>, 'mp-1897541': <CalcType.GGA_U_Static: 'GGA+U Static'>}"
mp-735513,Co4 H80 S8 N24 Cl4 O16,2.6821,"{'mp-812800': <CalcType.GGA_U_NSCF_Line: 'GGA+U NSCF Line'>, 'mp-798460': <CalcType.GGA_U_Static: 'GGA+U Static'>, 'mp-735513': <CalcType.GGA_U_Structure_Optimization: 'GGA+U Structure Optimization'>, 'mp-738207': <CalcType.GGA_Static: 'GGA Static'>, 'mp-1366303': <CalcType.GGA_U_Static: 'GGA+U Static'>, 'mp-813453': <CalcType.GGA_U_NSCF_Line: 'GGA+U NSCF Line'>, 'mp-833426': <CalcType.GGA_NSCF_Line: 'GGA NSCF Line'>, 'mp-828808': <CalcType.GGA_Static: 'GGA Static'>, 'mp-832630': <CalcType.GGA_NSCF_Line: 'GGA NSCF Line'>, 'mp-1850701': <CalcType.GGA_U_Static: 'GGA+U Static'>}"
mp-735603,Ca2 H32 C8 N16 Cl4 O8,1.0203,"{'mp-738548': <CalcType.GGA_Static: 'GGA Static'>, 'mp-735603': <CalcType.GGA_Structure_Optimization: 'GGA Structure Optimization'>, 'mp-848995': <CalcType.GGA_NSCF_Line: 'GGA NSCF Line'>, 'mp-1324812': <CalcType.GGA_Static: 'GGA Static'>, 'mp-748361': <CalcType.GGA_NSCF_Line: 'GGA NSCF Line'>, 'mp-1845400': <CalcType.GGA_Static: 'GGA Static'>}"
mp-735514,Mn2 H36 C8 N16 Cl8 O8,2.9996,"{'mp-735514': <CalcType.GGA_U_Structure_Optimization: 'GGA+U Structure Optimization'>, 'mp-799054': <CalcType.GGA_U_NSCF_Line: 'GGA+U NSCF Line'>, 'mp-798331': <CalcType.GGA_U_Static: 'GGA+U Static'>, 'mp-1351263': <CalcType.GGA_U_Static: 'GGA+U Static'>, 'mp-799866': <CalcType.GGA_U_NSCF_Line: 'GGA+U NSCF Line'>, 'mp-879437': <CalcType.GGA_Static: 'GGA Static'>, 'mp-1679740': <CalcType.GGA_U_NSCF_Uniform: 'GGA+U NSCF Uniform'>, 'mp-1868519': <CalcType.GGA_U_Static: 'GGA+U Static'>}"
mp-765959,Na4 P4 H12 C8 N12 O16,4.6403,"{'mp-784806': <CalcType.GGA_Static: 'GGA Static'>, 'mp-765959': <CalcType.GGA_Structure_Optimization: 'GGA Structure Optimization'>, 'mp-844067': <CalcType.GGA_NSCF_Line: 'GGA NSCF Line'>, 'mp-1353261': <CalcType.GGA_Static: 'GGA Static'>, 'mp-789296': <CalcType.GGA_NSCF_Line: 'GGA NSCF Line'>, 'mp-1892409': <CalcType.GGA_Static: 'GGA Static'>}"
mp-767297,Mn2 H16 C4 S4 N4 O8,3.3605,"{'mp-767297': <CalcType.GGA_U_Structure_Optimization: 'GGA+U Structure Optimization'>, 'mp-802282': <CalcType.GGA_U_Static: 'GGA+U Static'>, 'mp-809599': <CalcType.GGA_U_NSCF_Line: 'GGA+U NSCF Line'>, 'mp-1399570': <CalcType.GGA_U_Static: 'GGA+U Static'>, 'mp-809840': <CalcType.GGA_U_NSCF_Line: 'GGA+U NSCF Line'>, 'mp-831743': <CalcType.GGA_NSCF_Line: 'GGA NSCF Line'>, 'mp-830744': <CalcType.GGA_NSCF_Line: 'GGA NSCF Line'>, 'mp-828175': <CalcType.GGA_Static: 'GGA Static'>, 'mp-1730632': <CalcType.GGA_U_NSCF_Uniform: 'GGA+U NSCF Uniform'>, 'mp-1824984': <CalcType.GGA_U_Static: 'GGA+U Static'>}"
mp-1197279,Hg8 H96 C96 S16 N16 O32,2.1907,{'mp-1197279': <CalcType.GGA_Structure_Optimization: 'GGA Structure Optimization'>}
mp-1228969,Ba16 Ca2 H1 C12 N25 O4,1.9597000000000002,"{'mp-1228969': <CalcType.GGA_Structure_Optimization: 'GGA Structure Optimization'>, 'mp-1364108': <CalcType.GGA_Static: 'GGA Static'>}"
mp-1197042,Na2 P2 H12 C4 N8 O8,4.9843,"{'mp-1197042': <CalcType.GGA_Structure_Optimization: 'GGA Structure Optimization'>, 'mp-1840396': <CalcType.GGA_Static: 'GGA Static'>, 'mp-1987641': <CalcType.GGA_Static: 'GGA Static'>}"
mp-1199657,Ta12 H80 C16 Br32 N4 O16,1.4781,"{'mp-1199657': <CalcType.GGA_Structure_Optimization: 'GGA Structure Optimization'>, 'mp-1985834': <CalcType.GGA_Static: 'GGA Static'>}"
mp-1201870,Be2 H96 C40 I12 N16 O8,2.0476,{'mp-1201870': <CalcType.GGA_Structure_Optimization: 'GGA Structure Optimization'>}
mp-1200993,Mo2 H28 C12 N4 O8 F4,3.258099999999999,"{'mp-1200993': <CalcType.GGA_U_Structure_Optimization: 'GGA+U Structure Optimization'>, 'mp-1238757': <CalcType.GGA_U_Structure_Optimization: 'GGA+U Structure Optimization'>, 'mp-1379842': <CalcType.GGA_U_Static: 'GGA+U Static'>, 'mp-1683307': <CalcType.GGA_U_NSCF_Uniform: 'GGA+U NSCF Uniform'>, 'mp-1893902': <CalcType.GGA_U_Static: 'GGA+U Static'>}"
mp-573066,Cs4 C8 S8 N4 O16 F24,5.937399999999999,"{'mp-573066': <CalcType.GGA_Structure_Optimization: 'GGA Structure Optimization'>, 'mp-1350069': <CalcType.GGA_Static: 'GGA Static'>, 'mp-1684566': <CalcType.GGA_NSCF_Uniform: 'GGA NSCF Uniform'>, 'mp-1846527': <CalcType.GGA_Static: 'GGA Static'>}"
mp-680067,Ag8 C4 S4 N4 Cl4 O16,2.5318,"{'mp-848011': <CalcType.GGA_NSCF_Line: 'GGA NSCF Line'>, 'mp-730248': <CalcType.GGA_Static: 'GGA Static'>, 'mp-680067': <CalcType.GGA_Structure_Optimization: 'GGA Structure Optimization'>, 'mp-1348540': <CalcType.GGA_Static: 'GGA Static'>, 'mp-1892861': <CalcType.GGA_Static: 'GGA Static'>, 'mp-848543': <CalcType.GGA_NSCF_Line: 'GGA NSCF Line'>, 'mp-749092': <CalcType.GGA_NSCF_Line: 'GGA NSCF Line'>}"
mp-720842,Ba2 H16 Pt2 C8 N8 O8,2.1173,"{'mp-864227': <CalcType.GGA_NSCF_Line: 'GGA NSCF Line'>, 'mp-733733': <CalcType.GGA_Static: 'GGA Static'>, 'mp-720842': <CalcType.GGA_Structure_Optimization: 'GGA Structure Optimization'>, 'mp-1347297': <CalcType.GGA_Static: 'GGA Static'>, 'mp-1935037': <CalcType.GGA_Static: 'GGA Static'>, 'mp-745646': <CalcType.GGA_NSCF_Line: 'GGA NSCF Line'>}"
mp-720904,Ba2 H16 Pt2 C8 N8 O8,1.501199999999999,"{'mp-720904': <CalcType.GGA_Structure_Optimization: 'GGA Structure Optimization'>, 'mp-734281': <CalcType.GGA_Static: 'GGA Static'>, 'mp-848896': <CalcType.GGA_NSCF_Line: 'GGA NSCF Line'>, 'mp-1326474': <CalcType.GGA_Static: 'GGA Static'>, 'mp-1681224': <CalcType.GGA_NSCF_Uniform: 'GGA NSCF Uniform'>, 'mp-1924394': <CalcType.GGA_Static: 'GGA Static'>, 'mp-745395': <CalcType.GGA_NSCF_Line: 'GGA NSCF Line'>}"
mp-604327,Ni4 H72 C16 S24 N32 O16,1.2888,"{'mp-604395': <CalcType.GGA_U_Structure_Optimization: 'GGA+U Structure Optimization'>, 'mp-604327': <CalcType.GGA_Structure_Optimization: 'GGA Structure Optimization'>}"
mp-744395,Ni4 H72 C16 S24 N32 O16,2.5563000000000002,"{'mp-744395': <CalcType.GGA_U_Structure_Optimization: 'GGA+U Structure Optimization'>, 'mp-807748': <CalcType.GGA_U_Static: 'GGA+U Static'>, 'mp-817062': <CalcType.GGA_U_NSCF_Line: 'GGA+U NSCF Line'>, 'mp-1365613': <CalcType.GGA_U_Static: 'GGA+U Static'>}"