Material ID,Composition,Band Gap,Calc Types
mp-1368522,Na3 Ca1 Al3 Si3 S1 O16,0.0,"{'mp-1368522': <CalcType.GGA_Static: 'GGA Static'>, 'mp-1680371': <CalcType.GGA_NSCF_Uniform: 'GGA NSCF Uniform'>}"
mp-684950,K1 Na1 Zr2 Be1 P4 O16,2.659399999999999,"{'mp-739692': <CalcType.GGA_NSCF_Line: 'GGA NSCF Line'>, 'mp-725251': <CalcType.GGA_Static: 'GGA Static'>, 'mp-1021947': <CalcType.GGA_NSCF_Line: 'GGA NSCF Line'>, 'mp-684950': <CalcType.GGA_Structure_Optimization: 'GGA Structure Optimization'>, 'mp-1367101': <CalcType.GGA_Static: 'GGA Static'>, 'mp-1024918': <CalcType.GGA_NSCF_Line: 'GGA NSCF Line'>, 'mp-747727': <CalcType.GGA_NSCF_Line: 'GGA NSCF Line'>, 'mp-1836665': <CalcType.GGA_Static: 'GGA Static'>}"
mp-720222,Na6 Ca2 Al6 Si6 S2 O32,3.997,"{'mp-738118': <CalcType.GGA_NSCF_Line: 'GGA NSCF Line'>, 'mp-734010': <CalcType.GGA_Static: 'GGA Static'>, 'mp-720222': <CalcType.GGA_Structure_Optimization: 'GGA Structure Optimization'>, 'mp-1326230': <CalcType.GGA_Static: 'GGA Static'>, 'mp-745694': <CalcType.GGA_NSCF_Line: 'GGA NSCF Line'>, 'mp-1877153': <CalcType.GGA_Static: 'GGA Static'>}"
mp-755564,Li4 Mg4 Mn2 Fe2 P8 O32,1.061599999999999,"{'mp-849669': <CalcType.GGA_U_Structure_Optimization: 'GGA+U Structure Optimization'>, 'mp-861821': <CalcType.GGA_U_Static: 'GGA+U Static'>, 'mp-862644': <CalcType.GGA_U_NSCF_Line: 'GGA+U NSCF Line'>, 'mp-755564': <CalcType.GGA_Structure_Optimization: 'GGA Structure Optimization'>, 'mp-1347743': <CalcType.GGA_U_Static: 'GGA+U Static'>, 'mp-863612': <CalcType.GGA_U_NSCF_Line: 'GGA+U NSCF Line'>, 'mp-1651349': <CalcType.GGA_U_Static: 'GGA+U Static'>, 'mp-1650114': <CalcType.GGA_U_Structure_Optimization: 'GGA+U Structure Optimization'>, 'mp-1651709': <CalcType.GGA_U_Structure_Optimization: 'GGA+U Structure Optimization'>, 'mp-1651190': <CalcType.GGA_U_Static: 'GGA+U Static'>, 'mp-1653141': <CalcType.GGA_U_Structure_Optimization: 'GGA+U Structure Optimization'>, 'mp-1652432': <CalcType.GGA_U_Static: 'GGA+U Static'>, 'mp-1653497': <CalcType.GGA_U_Structure_Optimization: 'GGA+U Structure Optimization'>, 'mp-1653157': <CalcType.GGA_U_Structure_Optimization: 'GGA+U Structure Optimization'>, 'mp-1653167': <CalcType.GGA_U_Static: 'GGA+U Static'>, 'mp-1650861': <CalcType.GGA_U_Static: 'GGA+U Static'>, 'mp-1650164': <CalcType.GGA_U_Structure_Optimization: 'GGA+U Structure Optimization'>, 'mp-1650172': <CalcType.GGA_U_Structure_Optimization: 'GGA+U Structure Optimization'>, 'mp-1650884': <CalcType.GGA_U_Structure_Optimization: 'GGA+U Structure Optimization'>, 'mp-1654073': <CalcType.GGA_U_Structure_Optimization: 'GGA+U Structure Optimization'>, 'mp-1650191': <CalcType.GGA_U_Structure_Optimization: 'GGA+U Structure Optimization'>, 'mp-1650196': <CalcType.GGA_U_Structure_Optimization: 'GGA+U Structure Optimization'>, 'mp-1650935': <CalcType.GGA_U_Structure_Optimization: 'GGA+U Structure Optimization'>, 'mp-1650057': <CalcType.GGA_U_Structure_Optimization: 'GGA+U Structure Optimization'>, 'mp-1660521': <CalcType.GGA_U_Static: 'GGA+U Static'>, 'mp-1660338': <CalcType.GGA_U_Static: 'GGA+U Static'>, 'mp-1660981': <CalcType.GGA_U_Static: 'GGA+U Static'>, 'mp-1660935': <CalcType.GGA_U_Static: 'GGA+U Static'>, 'mp-1660342': <CalcType.GGA_U_Static: 'GGA+U Static'>, 'mp-1660756': <CalcType.GGA_U_Static: 'GGA+U Static'>, 'mp-1661032': <CalcType.GGA_U_Static: 'GGA+U Static'>, 'mp-1660894': <CalcType.GGA_U_Structure_Optimization: 'GGA+U Structure Optimization'>, 'mp-1667634': <CalcType.GGA_U_Static: 'GGA+U Static'>, 'mp-1666969': <CalcType.GGA_U_Structure_Optimization: 'GGA+U Structure Optimization'>, 'mp-1667649': <CalcType.GGA_U_Static: 'GGA+U Static'>, 'mp-1667574': <CalcType.GGA_U_Structure_Optimization: 'GGA+U Structure Optimization'>, 'mp-1666841': <CalcType.GGA_U_Structure_Optimization: 'GGA+U Structure Optimization'>, 'mp-1935950': <CalcType.GGA_U_Static: 'GGA+U Static'>}"
mp-1198593,Pu2 U2 P8 H8 C4 O32,0.041,"{'mp-1198593': <CalcType.GGA_Structure_Optimization: 'GGA Structure Optimization'>, 'mp-1357559': <CalcType.GGA_Static: 'GGA Static'>, 'mp-1896949': <CalcType.GGA_Static: 'GGA Static'>}"
mp-1197754,Np2 U2 P8 H8 C4 O32,0.0391,"{'mp-1197754': <CalcType.GGA_Structure_Optimization: 'GGA Structure Optimization'>, 'mp-1356021': <CalcType.GGA_Static: 'GGA Static'>, 'mp-1937987': <CalcType.GGA_Static: 'GGA Static'>}"
mp-1200542,Th2 U2 P8 H8 C4 O32,0.030600000000000002,"{'mp-1200542': <CalcType.GGA_Structure_Optimization: 'GGA Structure Optimization'>, 'mp-1357496': <CalcType.GGA_Static: 'GGA Static'>, 'mp-1895816': <CalcType.GGA_Static: 'GGA Static'>}"
mp-720245,Cs2 K2 Na2 Li26 Si8 O32,4.0858,"{'mp-733462': <CalcType.GGA_Static: 'GGA Static'>, 'mp-737308': <CalcType.GGA_NSCF_Line: 'GGA NSCF Line'>, 'mp-720245': <CalcType.GGA_Structure_Optimization: 'GGA Structure Optimization'>, 'mp-1249322': <CalcType.GGA_Structure_Optimization: 'GGA Structure Optimization'>, 'mp-1252157': <CalcType.GGA_NMR_Nuclear_Shielding: 'GGA NMR Nuclear Shielding'>, 'mp-1258474': <CalcType.GGA_NMR_Electric_Field_Gradient: 'GGA NMR Electric Field Gradient'>, 'mp-1364773': <CalcType.GGA_Static: 'GGA Static'>, 'mp-1896881': <CalcType.GGA_Static: 'GGA Static'>, 'mp-745391': <CalcType.GGA_NSCF_Line: 'GGA NSCF Line'>}"
mp-1218685,Sr4 Ca1 Y1 Cu6 Pb4 O16,0.0,"{'mp-1218685': <CalcType.GGA_Structure_Optimization: 'GGA Structure Optimization'>, 'mp-1355140': <CalcType.GGA_Static: 'GGA Static'>, 'mp-1932929': <CalcType.GGA_Static: 'GGA Static'>}"
mp-1181887,K12 Mo16 C4 S4 N4 O64,0.7926000000000001,{'mp-1181887': <CalcType.GGA_U_Structure_Optimization: 'GGA+U Structure Optimization'>}
mp-1180975,Mg2 C8 S8 N4 O32 F24,0.0,"{'mp-1180975': <CalcType.GGA_Structure_Optimization: 'GGA Structure Optimization'>, 'mp-1200697': <CalcType.GGA_Structure_Optimization: 'GGA Structure Optimization'>, 'mp-1363218': <CalcType.GGA_Static: 'GGA Static'>}"
mp-1210891,Na12 Ti8 Mn12 Si16 O64 F8,0.006099999999999,{'mp-1210891': <CalcType.GGA_U_Structure_Optimization: 'GGA+U Structure Optimization'>}
mp-709069,Ti8 P16 H36 C8 N4 O64,2.5683,"{'mp-864220': <CalcType.GGA_NSCF_Line: 'GGA NSCF Line'>, 'mp-709069': <CalcType.GGA_Structure_Optimization: 'GGA Structure Optimization'>, 'mp-729202': <CalcType.GGA_Static: 'GGA Static'>, 'mp-1334477': <CalcType.GGA_Static: 'GGA Static'>, 'mp-737406': <CalcType.GGA_NSCF_Line: 'GGA NSCF Line'>}"
mp-849796,Na2 Zn8 H36 S2 Cl2 O32,3.2835,"{'mp-856969': <CalcType.GGA_Static: 'GGA Static'>, 'mp-857898': <CalcType.GGA_NSCF_Line: 'GGA NSCF Line'>, 'mp-849796': <CalcType.GGA_Structure_Optimization: 'GGA Structure Optimization'>, 'mp-1350418': <CalcType.GGA_Static: 'GGA Static'>, 'mp-1919678': <CalcType.GGA_Static: 'GGA Static'>, 'mp-858416': <CalcType.GGA_NSCF_Line: 'GGA NSCF Line'>}"
mp-1205129,Na6 Li2 Ti4 Si8 H8 O32,3.5603,"{'mp-1205129': <CalcType.GGA_Structure_Optimization: 'GGA Structure Optimization'>, 'mp-1890210': <CalcType.GGA_Static: 'GGA Static'>, 'mp-1982629': <CalcType.GGA_Static: 'GGA Static'>}"
mp-1212649,K8 Tm2 P16 H36 N16 O32,0.15199999999999902,"{'mp-1212649': <CalcType.GGA_Structure_Optimization: 'GGA Structure Optimization'>, 'mp-1366258': <CalcType.GGA_Static: 'GGA Static'>}"
mp-757387,Na2 Ni6 P8 H16 N2 O32,4.3795,"{'mp-761432': <CalcType.GGA_U_Structure_Optimization: 'GGA+U Structure Optimization'>, 'mp-796857': <CalcType.GGA_U_Static: 'GGA+U Static'>, 'mp-797677': <CalcType.GGA_U_NSCF_Line: 'GGA+U NSCF Line'>, 'mp-757387': <CalcType.GGA_Structure_Optimization: 'GGA Structure Optimization'>, 'mp-826971': <CalcType.GGA_NSCF_Line: 'GGA NSCF Line'>, 'mp-826050': <CalcType.GGA_Static: 'GGA Static'>, 'mp-1357279': <CalcType.GGA_U_Static: 'GGA+U Static'>, 'mp-1937381': <CalcType.GGA_U_Static: 'GGA+U Static'>, 'mp-828950': <CalcType.GGA_NSCF_Line: 'GGA NSCF Line'>, 'mp-850865': <CalcType.GGA_U_NSCF_Line: 'GGA+U NSCF Line'>}"
mp-1224736,Mg3 Ni3 B6 P6 H36 O48,4.5703,"{'mp-1224736': <CalcType.GGA_U_Structure_Optimization: 'GGA+U Structure Optimization'>, 'mp-1237987': <CalcType.GGA_U_Structure_Optimization: 'GGA+U Structure Optimization'>, 'mp-1366197': <CalcType.GGA_U_Static: 'GGA+U Static'>, 'mp-1894683': <CalcType.GGA_U_Static: 'GGA+U Static'>}"
mp-1228510,Ba2 Sr3 Ca1 Mg2 Si4 O16,4.747299999999999,"{'mp-1228510': <CalcType.GGA_Structure_Optimization: 'GGA Structure Optimization'>, 'mp-1343581': <CalcType.GGA_Static: 'GGA Static'>, 'mp-1836861': <CalcType.GGA_Static: 'GGA Static'>}"
mp-1173736,Na6 Ca2 Al6 Si6 S2 O32,4.0333,"{'mp-1173736': <CalcType.GGA_Structure_Optimization: 'GGA Structure Optimization'>, 'mp-1328177': <CalcType.GGA_Static: 'GGA Static'>, 'mp-1937464': <CalcType.GGA_Static: 'GGA Static'>}"
mp-1199786,Zn20 P16 H48 C8 N8 O64,3.6811,"{'mp-1199786': <CalcType.GGA_Structure_Optimization: 'GGA Structure Optimization'>, 'mp-1981554': <CalcType.GGA_Static: 'GGA Static'>}"
mp-1181719,Na2 Zn8 H12 S2 Cl2 O32,0.49310000000000004,"{'mp-1181719': <CalcType.GGA_Structure_Optimization: 'GGA Structure Optimization'>, 'mp-1364850': <CalcType.GGA_Static: 'GGA Static'>, 'mp-1867721': <CalcType.GGA_Static: 'GGA Static'>}"
mp-1199099,Cu3 P4 H24 C6 N2 O16,0.8172,"{'mp-1199099': <CalcType.GGA_Structure_Optimization: 'GGA Structure Optimization'>, 'mp-1933875': <CalcType.GGA_Static: 'GGA Static'>, 'mp-1984736': <CalcType.GGA_Static: 'GGA Static'>}"
mp-1204491,Ca4 Mn2 Al4 Si8 B2 O32,0.0,"{'mp-1204491': <CalcType.GGA_U_Structure_Optimization: 'GGA+U Structure Optimization'>, 'mp-1373691': <CalcType.GGA_U_Static: 'GGA+U Static'>, 'mp-1657913': <CalcType.GGA_U_Static: 'GGA+U Static'>, 'mp-1680541': <CalcType.GGA_U_NSCF_Uniform: 'GGA+U NSCF Uniform'>, 'mp-1875510': <CalcType.GGA_U_Static: 'GGA+U Static'>}"
mp-1205165,Na2 Zn8 H12 S2 Cl2 O32,0.011399999999999001,"{'mp-1205165': <CalcType.GGA_Structure_Optimization: 'GGA Structure Optimization'>, 'mp-1890311': <CalcType.GGA_Static: 'GGA Static'>}"
mp-1214060,Ca2 Mg10 P6 H2 C2 O32,5.0362,"{'mp-1214060': <CalcType.GGA_Structure_Optimization: 'GGA Structure Optimization'>, 'mp-1349754': <CalcType.GGA_Static: 'GGA Static'>, 'mp-1878958': <CalcType.GGA_Static: 'GGA Static'>}"
mp-1218734,Sr4 Ca1 Y1 Cu6 Pb4 O16,0.0,"{'mp-1218734': <CalcType.GGA_Structure_Optimization: 'GGA Structure Optimization'>, 'mp-1380819': <CalcType.GGA_Static: 'GGA Static'>, 'mp-1821682': <CalcType.GGA_Static: 'GGA Static'>}"
mp-1218617,Sr4 Ca1 Ho1 Cu6 Pb4 O16,0.0,"{'mp-1218617': <CalcType.GGA_Structure_Optimization: 'GGA Structure Optimization'>, 'mp-1361992': <CalcType.GGA_Static: 'GGA Static'>, 'mp-1818250': <CalcType.GGA_Static: 'GGA Static'>}"
mp-1212031,K2 Ca2 Mg1 H2 S4 O16,2.4694000000000003,"{'mp-1212031': <CalcType.GGA_Structure_Optimization: 'GGA Structure Optimization'>, 'mp-1341376': <CalcType.GGA_Static: 'GGA Static'>, 'mp-1840894': <CalcType.GGA_Static: 'GGA Static'>}"
mp-1233082,K2 Mg1 Zn4 P4 H2 O16,0.873499999999999,{'mp-1233082': <CalcType.GGA_Structure_Optimization: 'GGA Structure Optimization'>}
mp-1233328,K2 Mg1 Fe4 P6 O16 F12,1.469399999999999,{'mp-1233328': <CalcType.GGA_U_Structure_Optimization: 'GGA+U Structure Optimization'>}
mp-1233087,Sr2 Ca1 Zn2 Sn2 P4 O16,0.582499999999999,"{'mp-1233087': <CalcType.GGA_Structure_Optimization: 'GGA Structure Optimization'>, 'mp-1233108': <CalcType.GGA_Static: 'GGA Static'>}"
mp-1233286,Sr2 Mg1 Zn2 Sn2 P4 O16,0.25870000000000004,{'mp-1233286': <CalcType.GGA_Structure_Optimization: 'GGA Structure Optimization'>}
mp-1233397,K2 Mg1 Fe4 P6 O16 F12,1.5888,{'mp-1233397': <CalcType.GGA_U_Structure_Optimization: 'GGA+U Structure Optimization'>}
mp-1233873,K2 Mg1 Fe4 P6 O16 F12,1.8515000000000001,{'mp-1233873': <CalcType.GGA_U_Structure_Optimization: 'GGA+U Structure Optimization'>}
mp-1234116,K2 Mg1 Zn4 P4 H2 O16,0.9413999999999991,{'mp-1234116': <CalcType.GGA_Structure_Optimization: 'GGA Structure Optimization'>}
mp-1234834,Sr2 Mg1 Zn2 Sn2 P4 O16,0.513099999999999,{'mp-1234834': <CalcType.GGA_Structure_Optimization: 'GGA Structure Optimization'>}
mp-1234960,Sr2 Mg1 Zn2 Sn2 P4 O16,1.896,{'mp-1234960': <CalcType.GGA_Structure_Optimization: 'GGA Structure Optimization'>}
mp-2898484,Sr2 Mg1 Zn2 Sn2 P4 O16,2.3845,{'mp-2898484': <CalcType.r2SCAN_Structure_Optimization: 'r2SCAN Structure Optimization'>}
mp-734098,Ca4 Al4 Fe2 Si8 B2 O32,1.0825,"{'mp-1197530': <CalcType.GGA_U_Structure_Optimization: 'GGA+U Structure Optimization'>, 'mp-734098': <CalcType.GGA_Static: 'GGA Static'>, 'mp-818484': <CalcType.GGA_U_Static: 'GGA+U Static'>, 'mp-833858': <CalcType.GGA_Static: 'GGA Static'>, 'mp-824435': <CalcType.GGA_U_NSCF_Line: 'GGA+U NSCF Line'>, 'mp-840578': <CalcType.GGA_NSCF_Line: 'GGA NSCF Line'>, 'mp-1376951': <CalcType.GGA_U_Static: 'GGA+U Static'>, 'mp-1880661': <CalcType.GGA_U_Static: 'GGA+U Static'>, 'mp-825078': <CalcType.GGA_U_NSCF_Line: 'GGA+U NSCF Line'>, 'mp-841278': <CalcType.GGA_NSCF_Line: 'GGA NSCF Line'>}"
mp-738697,Al6 P8 H36 C6 N6 O32,5.3507,"{'mp-750534': <CalcType.GGA_NSCF_Line: 'GGA NSCF Line'>, 'mp-738697': <CalcType.GGA_Structure_Optimization: 'GGA Structure Optimization'>, 'mp-746009': <CalcType.GGA_Static: 'GGA Static'>, 'mp-1255103': <CalcType.GGA_NMR_Electric_Field_Gradient: 'GGA NMR Electric Field Gradient'>, 'mp-1261477': <CalcType.GGA_Structure_Optimization: 'GGA Structure Optimization'>, 'mp-1263873': <CalcType.GGA_NMR_Nuclear_Shielding: 'GGA NMR Nuclear Shielding'>, 'mp-1364009': <CalcType.GGA_Static: 'GGA Static'>, 'mp-1851265': <CalcType.GGA_Static: 'GGA Static'>, 'mp-750961': <CalcType.GGA_NSCF_Line: 'GGA NSCF Line'>}"
mp-1199440,U4 H24 C4 Se6 N12 O32,1.8317,"{'mp-1199440': <CalcType.GGA_Structure_Optimization: 'GGA Structure Optimization'>, 'mp-1326045': <CalcType.GGA_Static: 'GGA Static'>}"
mp-1210862,Na4 Ca10 Ti2 Si8 O32 F4,0.0,"{'mp-1210862': <CalcType.GGA_Structure_Optimization: 'GGA Structure Optimization'>, 'mp-1329585': <CalcType.GGA_Static: 'GGA Static'>, 'mp-1894918': <CalcType.GGA_Static: 'GGA Static'>}"
mp-1211154,Na6 Ca8 Ti2 Si8 O32 F4,0.0,"{'mp-1211154': <CalcType.GGA_Structure_Optimization: 'GGA Structure Optimization'>, 'mp-1327887': <CalcType.GGA_Static: 'GGA Static'>, 'mp-1895989': <CalcType.GGA_Static: 'GGA Static'>}"
mp-1228542,Ba2 Sr3 Ca1 Mg2 Si4 O16,4.755699999999999,"{'mp-1228542': <CalcType.GGA_Structure_Optimization: 'GGA Structure Optimization'>, 'mp-1367635': <CalcType.GGA_Static: 'GGA Static'>, 'mp-1841758': <CalcType.GGA_Static: 'GGA Static'>}"
mp-772852,Na12 Zn16 P16 H16 N4 O64,4.0324,"{'mp-786554': <CalcType.GGA_Static: 'GGA Static'>, 'mp-790645': <CalcType.GGA_NSCF_Line: 'GGA NSCF Line'>, 'mp-772852': <CalcType.GGA_Structure_Optimization: 'GGA Structure Optimization'>, 'mp-1366016': <CalcType.GGA_Static: 'GGA Static'>, 'mp-791628': <CalcType.GGA_NSCF_Line: 'GGA NSCF Line'>}"
mp-1195490,Ni4 H128 C16 S8 N8 O64,4.9916,{'mp-1195490': <CalcType.GGA_U_Structure_Optimization: 'GGA+U Structure Optimization'>}
mp-720719,Ca8 Y8 Si16 H8 C4 O64,5.429,"{'mp-734259': <CalcType.GGA_Static: 'GGA Static'>, 'mp-738272': <CalcType.GGA_NSCF_Line: 'GGA NSCF Line'>, 'mp-720719': <CalcType.GGA_Structure_Optimization: 'GGA Structure Optimization'>, 'mp-1134208': <CalcType.GGA_Structure_Optimization: 'GGA Structure Optimization'>, 'mp-1251195': <CalcType.GGA_NMR_Electric_Field_Gradient: 'GGA NMR Electric Field Gradient'>, 'mp-1258598': <CalcType.GGA_Structure_Optimization: 'GGA Structure Optimization'>, 'mp-1335986': <CalcType.GGA_Static: 'GGA Static'>, 'mp-1826890': <CalcType.GGA_Static: 'GGA Static'>, 'mp-745866': <CalcType.GGA_NSCF_Line: 'GGA NSCF Line'>}"
mp-1209382,Sr8 Ca4 Cu8 Bi8 I2 O32,0.0,"{'mp-1209382': <CalcType.GGA_Structure_Optimization: 'GGA Structure Optimization'>, 'mp-1850143': <CalcType.GGA_Static: 'GGA Static'>}"
mp-759748,Na4 Li8 Mn4 C8 S2 O32,3.9371,"{'mp-801483': <CalcType.GGA_U_Static: 'GGA+U Static'>, 'mp-844069': <CalcType.GGA_U_NSCF_Line: 'GGA+U NSCF Line'>, 'mp-765654': <CalcType.GGA_U_Structure_Optimization: 'GGA+U Structure Optimization'>, 'mp-759748': <CalcType.GGA_Structure_Optimization: 'GGA Structure Optimization'>, 'mp-827558': <CalcType.GGA_NSCF_Line: 'GGA NSCF Line'>, 'mp-826596': <CalcType.GGA_Static: 'GGA Static'>, 'mp-1328764': <CalcType.GGA_U_Static: 'GGA+U Static'>, 'mp-1889799': <CalcType.GGA_U_Static: 'GGA+U Static'>, 'mp-829592': <CalcType.GGA_NSCF_Line: 'GGA NSCF Line'>, 'mp-844841': <CalcType.GGA_U_NSCF_Line: 'GGA+U NSCF Line'>}"
mp-758866,Na4 Li8 Ni4 C8 S2 O32,3.5983,"{'mp-801486': <CalcType.GGA_U_Static: 'GGA+U Static'>, 'mp-808311': <CalcType.GGA_U_NSCF_Line: 'GGA+U NSCF Line'>, 'mp-765655': <CalcType.GGA_U_Structure_Optimization: 'GGA+U Structure Optimization'>, 'mp-827553': <CalcType.GGA_NSCF_Line: 'GGA NSCF Line'>, 'mp-758866': <CalcType.GGA_Structure_Optimization: 'GGA Structure Optimization'>, 'mp-826613': <CalcType.GGA_Static: 'GGA Static'>, 'mp-1325351': <CalcType.GGA_U_Static: 'GGA+U Static'>, 'mp-1869373': <CalcType.GGA_U_Static: 'GGA+U Static'>, 'mp-829625': <CalcType.GGA_NSCF_Line: 'GGA NSCF Line'>, 'mp-808992': <CalcType.GGA_U_NSCF_Line: 'GGA+U NSCF Line'>}"
mp-760207,Na4 Li8 Co4 C8 S2 O32,2.5437000000000003,"{'mp-765657': <CalcType.GGA_U_Structure_Optimization: 'GGA+U Structure Optimization'>, 'mp-808316': <CalcType.GGA_U_NSCF_Line: 'GGA+U NSCF Line'>, 'mp-801487': <CalcType.GGA_U_Static: 'GGA+U Static'>, 'mp-760207': <CalcType.GGA_Structure_Optimization: 'GGA Structure Optimization'>, 'mp-881698': <CalcType.GGA_Static: 'GGA Static'>, 'mp-1324744': <CalcType.GGA_U_Static: 'GGA+U Static'>, 'mp-1890992': <CalcType.GGA_U_Static: 'GGA+U Static'>, 'mp-808987': <CalcType.GGA_U_NSCF_Line: 'GGA+U NSCF Line'>}"
mp-1218790,Sr4 Y2 Ga1 Cu5 Pb4 O16,0.0,"{'mp-1218790': <CalcType.GGA_Structure_Optimization: 'GGA Structure Optimization'>, 'mp-1360719': <CalcType.GGA_Static: 'GGA Static'>, 'mp-1933810': <CalcType.GGA_Static: 'GGA Static'>}"
mp-17718,Cs1 K1 Na2 Li12 Si4 O16,4.872199999999999,"{'mp-703192': <CalcType.GGA_NSCF_Line: 'GGA NSCF Line'>, 'mp-683488': <CalcType.GGA_Static: 'GGA Static'>, 'mp-713452': <CalcType.GGA_NSCF_Line: 'GGA NSCF Line'>, 'mp-17718': <CalcType.GGA_Structure_Optimization: 'GGA Structure Optimization'>, 'mp-1133949': <CalcType.GGA_Structure_Optimization: 'GGA Structure Optimization'>, 'mp-1248216': <CalcType.GGA_Structure_Optimization: 'GGA Structure Optimization'>, 'mp-1261739': <CalcType.GGA_NMR_Electric_Field_Gradient: 'GGA NMR Electric Field Gradient'>, 'mp-1262075': <CalcType.GGA_NMR_Nuclear_Shielding: 'GGA NMR Nuclear Shielding'>, 'mp-1385848': <CalcType.GGA_Static: 'GGA Static'>, 'mp-1843370': <CalcType.GGA_Static: 'GGA Static'>}"
mp-1200046,Li12 V8 B4 P16 H8 O68,2.237,"{'mp-1200046': <CalcType.GGA_U_Structure_Optimization: 'GGA+U Structure Optimization'>, 'mp-1849981': <CalcType.GGA_U_Static: 'GGA+U Static'>, 'mp-1986923': <CalcType.GGA_U_Static: 'GGA+U Static'>}"
mp-735489,K4 Ca4 Cr4 H40 C24 O68,3.3606,"{'mp-1365467': <CalcType.GGA_U_Static: 'GGA+U Static'>, 'mp-735489': <CalcType.GGA_U_Structure_Optimization: 'GGA+U Structure Optimization'>, 'mp-807746': <CalcType.GGA_U_Static: 'GGA+U Static'>, 'mp-736273': <CalcType.GGA_Static: 'GGA Static'>}"
mp-773133,K12 Cu4 B8 P16 H12 O68,0.8481000000000001,"{'mp-853371': <CalcType.GGA_Static: 'GGA Static'>, 'mp-773133': <CalcType.GGA_Structure_Optimization: 'GGA Structure Optimization'>, 'mp-995804': <CalcType.GGA_NSCF_Line: 'GGA NSCF Line'>, 'mp-1334569': <CalcType.GGA_Static: 'GGA Static'>, 'mp-996460': <CalcType.GGA_NSCF_Line: 'GGA NSCF Line'>}"
mp-1195410,U8 H72 C16 Se12 N8 O68,2.307,"{'mp-1195410': <CalcType.GGA_Structure_Optimization: 'GGA Structure Optimization'>, 'mp-1986893': <CalcType.GGA_Static: 'GGA Static'>}"
mp-1213511,K20 U4 Cr12 H12 N4 O68,1.7000000000000002,"{'mp-1213511': <CalcType.GGA_U_Structure_Optimization: 'GGA+U Structure Optimization'>, 'mp-1237873': <CalcType.GGA_U_Structure_Optimization: 'GGA+U Structure Optimization'>}"