Material ID,Composition,Band Gap,Calc Types
mp-24827,K4 V4 B4 P8 H4 O36,0.0,"{'mp-823903': <CalcType.GGA_U_NSCF_Line: 'GGA+U NSCF Line'>, 'mp-818007': <CalcType.GGA_U_Static: 'GGA+U Static'>, 'mp-633646': <CalcType.GGA_U_Structure_Optimization: 'GGA+U Structure Optimization'>, 'mp-25623': <CalcType.GGA_U_Structure_Optimization: 'GGA+U Structure Optimization'>, 'mp-24827': <CalcType.GGA_Structure_Optimization: 'GGA Structure Optimization'>, 'mp-1313084': <CalcType.GGA_U_Static: 'GGA+U Static'>, 'mp-1316134': <CalcType.GGA_U_Static: 'GGA+U Static'>, 'mp-1316568': <CalcType.GGA_U_Structure_Optimization: 'GGA+U Structure Optimization'>, 'mp-1318188': <CalcType.GGA_U_Static: 'GGA+U Static'>, 'mp-1414411': <CalcType.GGA_U_Static: 'GGA+U Static'>, 'mp-1565909': <CalcType.GGA_U_Structure_Optimization: 'GGA+U Structure Optimization'>, 'mp-1566413': <CalcType.GGA_U_Structure_Optimization: 'GGA+U Structure Optimization'>, 'mp-1566763': <CalcType.GGA_U_Structure_Optimization: 'GGA+U Structure Optimization'>, 'mp-1567216': <CalcType.GGA_U_Static: 'GGA+U Static'>, 'mp-1565573': <CalcType.GGA_U_Structure_Optimization: 'GGA+U Structure Optimization'>, 'mp-1643626': <CalcType.GGA_U_Structure_Optimization: 'GGA+U Structure Optimization'>, 'mp-1649068': <CalcType.GGA_U_Structure_Optimization: 'GGA+U Structure Optimization'>, 'mp-1649086': <CalcType.GGA_U_Static: 'GGA+U Static'>, 'mp-1646825': <CalcType.GGA_U_Static: 'GGA+U Static'>, 'mp-1641867': <CalcType.GGA_U_Static: 'GGA+U Static'>, 'mp-1639640': <CalcType.GGA_U_Static: 'GGA+U Static'>, 'mp-1642371': <CalcType.GGA_U_Structure_Optimization: 'GGA+U Structure Optimization'>, 'mp-1648718': <CalcType.GGA_U_Static: 'GGA+U Static'>, 'mp-1639696': <CalcType.GGA_U_Static: 'GGA+U Static'>, 'mp-1638830': <CalcType.GGA_U_Structure_Optimization: 'GGA+U Structure Optimization'>, 'mp-1644728': <CalcType.GGA_U_Static: 'GGA+U Static'>, 'mp-1648341': <CalcType.GGA_U_Static: 'GGA+U Static'>, 'mp-1647936': <CalcType.GGA_U_Structure_Optimization: 'GGA+U Structure Optimization'>, 'mp-1640727': <CalcType.GGA_U_Static: 'GGA+U Static'>, 'mp-1643464': <CalcType.GGA_U_Structure_Optimization: 'GGA+U Structure Optimization'>, 'mp-1643479': <CalcType.GGA_U_Structure_Optimization: 'GGA+U Structure Optimization'>, 'mp-1649372': <CalcType.GGA_U_Structure_Optimization: 'GGA+U Structure Optimization'>, 'mp-1646202': <CalcType.GGA_U_Static: 'GGA+U Static'>, 'mp-1649389': <CalcType.GGA_U_Static: 'GGA+U Static'>, 'mp-1640816': <CalcType.GGA_U_Structure_Optimization: 'GGA+U Structure Optimization'>, 'mp-1639479': <CalcType.GGA_U_Static: 'GGA+U Static'>, 'mp-1759136': <CalcType.GGA_U_NSCF_Uniform: 'GGA+U NSCF Uniform'>, 'mp-1616257': <CalcType.GGA_U_NSCF_Line: 'GGA+U NSCF Line'>, 'mp-824681': <CalcType.GGA_U_NSCF_Line: 'GGA+U NSCF Line'>, 'mp-1979584': <CalcType.GGA_U_Static: 'GGA+U Static'>, 'mp-1985664': <CalcType.GGA_U_Static: 'GGA+U Static'>, 'mp-1985997': <CalcType.GGA_U_Static: 'GGA+U Static'>, 'mp-1983685': <CalcType.GGA_U_Static: 'GGA+U Static'>, 'mp-1982736': <CalcType.GGA_U_Static: 'GGA+U Static'>, 'mp-1982761': <CalcType.GGA_U_Static: 'GGA+U Static'>, 'mp-1981441': <CalcType.GGA_U_Static: 'GGA+U Static'>, 'mp-1986074': <CalcType.GGA_U_Static: 'GGA+U Static'>, 'mp-1984504': <CalcType.GGA_U_Static: 'GGA+U Static'>, 'mp-1987634': <CalcType.GGA_U_Static: 'GGA+U Static'>, 'mp-2165091': <CalcType.GGA_U_NSCF_Line: 'GGA+U NSCF Line'>, 'mp-2334107': <CalcType.GGA_U_NSCF_Line: 'GGA+U NSCF Line'>}"
mp-559034,H36 Pb2 C12 S8 N4 O18,4.9741,"{'mp-681284': <CalcType.GGA_NSCF_Line: 'GGA NSCF Line'>, 'mp-657972': <CalcType.GGA_Static: 'GGA Static'>, 'mp-665949': <CalcType.GGA_NSCF_Line: 'GGA NSCF Line'>, 'mp-559034': <CalcType.GGA_Structure_Optimization: 'GGA Structure Optimization'>, 'mp-1350797': <CalcType.GGA_Static: 'GGA Static'>, 'mp-1897883': <CalcType.GGA_Static: 'GGA Static'>}"
mp-695698,Ca4 Ti2 Al2 Si4 O18 F2,3.1263,"{'mp-695698': <CalcType.GGA_Structure_Optimization: 'GGA Structure Optimization'>, 'mp-740216': <CalcType.GGA_NSCF_Line: 'GGA NSCF Line'>, 'mp-726152': <CalcType.GGA_Static: 'GGA Static'>, 'mp-1134135': <CalcType.GGA_Structure_Optimization: 'GGA Structure Optimization'>, 'mp-1248177': <CalcType.GGA_Structure_Optimization: 'GGA Structure Optimization'>, 'mp-1251084': <CalcType.GGA_NMR_Nuclear_Shielding: 'GGA NMR Nuclear Shielding'>, 'mp-1256150': <CalcType.GGA_NMR_Electric_Field_Gradient: 'GGA NMR Electric Field Gradient'>, 'mp-1256600': <CalcType.GGA_NMR_Electric_Field_Gradient: 'GGA NMR Electric Field Gradient'>, 'mp-1258368': <CalcType.GGA_NMR_Nuclear_Shielding: 'GGA NMR Nuclear Shielding'>, 'mp-1267173': <CalcType.GGA_Structure_Optimization: 'GGA Structure Optimization'>, 'mp-1344232': <CalcType.GGA_Static: 'GGA Static'>, 'mp-1843442': <CalcType.GGA_Static: 'GGA Static'>, 'mp-748232': <CalcType.GGA_NSCF_Line: 'GGA NSCF Line'>}"
mp-698522,Sb6 P4 H12 C4 N2 O18,0.047299999999999,"{'mp-698522': <CalcType.GGA_Structure_Optimization: 'GGA Structure Optimization'>, 'mp-726535': <CalcType.GGA_Static: 'GGA Static'>, 'mp-740302': <CalcType.GGA_NSCF_Line: 'GGA NSCF Line'>, 'mp-1377114': <CalcType.GGA_Static: 'GGA Static'>, 'mp-1893317': <CalcType.GGA_Static: 'GGA Static'>, 'mp-747763': <CalcType.GGA_NSCF_Line: 'GGA NSCF Line'>}"
mp-729296,Ni10 Sb2 H34 C30 N2 O18,1.4727000000000001,"{'mp-818704': <CalcType.GGA_U_Static: 'GGA+U Static'>, 'mp-824888': <CalcType.GGA_U_NSCF_Line: 'GGA+U NSCF Line'>, 'mp-744858': <CalcType.GGA_U_Structure_Optimization: 'GGA+U Structure Optimization'>, 'mp-729296': <CalcType.GGA_Static: 'GGA Static'>, 'mp-833825': <CalcType.GGA_Static: 'GGA Static'>, 'mp-840954': <CalcType.GGA_NSCF_Line: 'GGA NSCF Line'>, 'mp-1330725': <CalcType.GGA_U_Static: 'GGA+U Static'>, 'mp-1851501': <CalcType.GGA_U_Static: 'GGA+U Static'>, 'mp-841860': <CalcType.GGA_NSCF_Line: 'GGA NSCF Line'>, 'mp-1583776': <CalcType.GGA_U_NSCF_Line: 'GGA+U NSCF Line'>, 'mp-825218': <CalcType.GGA_U_NSCF_Line: 'GGA+U NSCF Line'>}"
mp-735041,Al2 V2 P4 C2 N2 O18,0.5951000000000001,"{'mp-735041': <CalcType.GGA_Static: 'GGA Static'>, 'mp-824362': <CalcType.GGA_U_NSCF_Line: 'GGA+U NSCF Line'>, 'mp-818486': <CalcType.GGA_U_Static: 'GGA+U Static'>, 'mp-833889': <CalcType.GGA_Static: 'GGA Static'>, 'mp-841058': <CalcType.GGA_NSCF_Line: 'GGA NSCF Line'>, 'mp-825031': <CalcType.GGA_U_NSCF_Line: 'GGA+U NSCF Line'>, 'mp-841897': <CalcType.GGA_NSCF_Line: 'GGA NSCF Line'>}"
mp-752709,In2 B2 P4 H10 N2 O18,4.0764,"{'mp-850598': <CalcType.GGA_Static: 'GGA Static'>, 'mp-752709': <CalcType.GGA_Structure_Optimization: 'GGA Structure Optimization'>, 'mp-851368': <CalcType.GGA_NSCF_Line: 'GGA NSCF Line'>, 'mp-1405863': <CalcType.GGA_Static: 'GGA Static'>, 'mp-1744032': <CalcType.GGA_NSCF_Uniform: 'GGA NSCF Uniform'>, 'mp-1839897': <CalcType.GGA_Static: 'GGA Static'>, 'mp-853370': <CalcType.GGA_NSCF_Line: 'GGA NSCF Line'>, 'mp-1586437': <CalcType.GGA_NSCF_Line: 'GGA NSCF Line'>, 'mp-2098784': <CalcType.GGA_NSCF_Line: 'GGA NSCF Line'>, 'mp-2301989': <CalcType.GGA_NSCF_Line: 'GGA NSCF Line'>}"
mp-766175,Rb2 In2 B2 P4 H2 O18,4.0472,"{'mp-766175': <CalcType.GGA_Structure_Optimization: 'GGA Structure Optimization'>, 'mp-852440': <CalcType.GGA_Static: 'GGA Static'>, 'mp-855312': <CalcType.GGA_NSCF_Line: 'GGA NSCF Line'>, 'mp-1400244': <CalcType.GGA_Static: 'GGA Static'>, 'mp-1716124': <CalcType.GGA_NSCF_Uniform: 'GGA NSCF Uniform'>, 'mp-1836370': <CalcType.GGA_Static: 'GGA Static'>, 'mp-855780': <CalcType.GGA_NSCF_Line: 'GGA NSCF Line'>, 'mp-1627777': <CalcType.GGA_NSCF_Line: 'GGA NSCF Line'>, 'mp-2101713': <CalcType.GGA_NSCF_Line: 'GGA NSCF Line'>, 'mp-2310375': <CalcType.GGA_NSCF_Line: 'GGA NSCF Line'>, 'mp-2911741': <CalcType.r2SCAN_Structure_Optimization: 'r2SCAN Structure Optimization'>}"
mp-1208085,V2 Co4 P4 H6 N2 O18,1.5049000000000001,"{'mp-1208085': <CalcType.GGA_U_Structure_Optimization: 'GGA+U Structure Optimization'>, 'mp-1825705': <CalcType.GGA_U_Static: 'GGA+U Static'>}"
mp-759615,Na8 Li4 Ca4 V4 P8 O36,1.7654,"{'mp-763838': <CalcType.GGA_U_Structure_Optimization: 'GGA+U Structure Optimization'>, 'mp-800243': <CalcType.GGA_U_Static: 'GGA+U Static'>, 'mp-804804': <CalcType.GGA_U_NSCF_Line: 'GGA+U NSCF Line'>, 'mp-759615': <CalcType.GGA_Structure_Optimization: 'GGA Structure Optimization'>, 'mp-881316': <CalcType.GGA_Static: 'GGA Static'>, 'mp-1325514': <CalcType.GGA_U_Static: 'GGA+U Static'>, 'mp-806337': <CalcType.GGA_U_NSCF_Line: 'GGA+U NSCF Line'>}"
mp-759637,Na8 Sr4 Li4 V4 P8 O36,1.7849,"{'mp-800233': <CalcType.GGA_U_Static: 'GGA+U Static'>, 'mp-804805': <CalcType.GGA_U_NSCF_Line: 'GGA+U NSCF Line'>, 'mp-763837': <CalcType.GGA_U_Structure_Optimization: 'GGA+U Structure Optimization'>, 'mp-759637': <CalcType.GGA_Structure_Optimization: 'GGA Structure Optimization'>, 'mp-881309': <CalcType.GGA_Static: 'GGA Static'>, 'mp-1365028': <CalcType.GGA_U_Static: 'GGA+U Static'>, 'mp-806338': <CalcType.GGA_U_NSCF_Line: 'GGA+U NSCF Line'>}"
mp-556641,Na16 Li8 Al8 P16 H16 O72,5.1452,"{'mp-657554': <CalcType.GGA_Static: 'GGA Static'>, 'mp-679915': <CalcType.GGA_NSCF_Line: 'GGA NSCF Line'>, 'mp-664771': <CalcType.GGA_NSCF_Line: 'GGA NSCF Line'>, 'mp-556641': <CalcType.GGA_Structure_Optimization: 'GGA Structure Optimization'>, 'mp-1249900': <CalcType.GGA_Structure_Optimization: 'GGA Structure Optimization'>, 'mp-1258548': <CalcType.GGA_NMR_Electric_Field_Gradient: 'GGA NMR Electric Field Gradient'>, 'mp-1338520': <CalcType.GGA_Static: 'GGA Static'>}"
mp-1227794,Ba1 Sr1 Ca2 Tl1 Cu3 O9,0.0,"{'mp-1227794': <CalcType.GGA_Structure_Optimization: 'GGA Structure Optimization'>, 'mp-1934042': <CalcType.GGA_Static: 'GGA Static'>}"
mp-1173840,Na4 Ca4 H24 S8 N4 O36,4.9222,"{'mp-1173840': <CalcType.GGA_Structure_Optimization: 'GGA Structure Optimization'>, 'mp-1920368': <CalcType.GGA_Static: 'GGA Static'>}"
mp-1173247,Sr3 La1 Cu2 Hg1 Bi1 O10,0.0,"{'mp-1173247': <CalcType.GGA_Structure_Optimization: 'GGA Structure Optimization'>, 'mp-1924022': <CalcType.GGA_Static: 'GGA Static'>}"
mp-1177765,Li6 V3 Fe3 P6 H6 O30,1.7279,"{'mp-1177765': <CalcType.GGA_U_Structure_Optimization: 'GGA+U Structure Optimization'>, 'mp-1350574': <CalcType.GGA_U_Static: 'GGA+U Static'>, 'mp-1869638': <CalcType.GGA_U_Static: 'GGA+U Static'>}"
mp-1177766,Li4 V2 Fe2 P4 H4 O20,1.7845,"{'mp-1177766': <CalcType.GGA_U_Structure_Optimization: 'GGA+U Structure Optimization'>, 'mp-1361892': <CalcType.GGA_U_Static: 'GGA+U Static'>, 'mp-1843063': <CalcType.GGA_U_Static: 'GGA+U Static'>}"
mp-1177933,Li6 Mn3 V3 P6 H6 O30,0.5618000000000001,"{'mp-1177933': <CalcType.GGA_U_Structure_Optimization: 'GGA+U Structure Optimization'>, 'mp-1353049': <CalcType.GGA_U_Static: 'GGA+U Static'>, 'mp-1924948': <CalcType.GGA_U_Static: 'GGA+U Static'>}"
mp-1177882,Li4 Mn2 V2 P4 H4 O20,0.5952000000000001,"{'mp-1177882': <CalcType.GGA_U_Structure_Optimization: 'GGA+U Structure Optimization'>, 'mp-1355794': <CalcType.GGA_U_Static: 'GGA+U Static'>, 'mp-1657411': <CalcType.GGA_U_Static: 'GGA+U Static'>, 'mp-1842623': <CalcType.GGA_U_Static: 'GGA+U Static'>}"
mp-1218877,Sr2 Ce1 Pr1 Cu3 Pb2 O10,0.0,"{'mp-1218877': <CalcType.GGA_Structure_Optimization: 'GGA Structure Optimization'>, 'mp-1347210': <CalcType.GGA_Static: 'GGA Static'>, 'mp-1928717': <CalcType.GGA_Static: 'GGA Static'>}"
mp-1223512,K1 Mg3 Al1 Si3 O10 F2,0.0,"{'mp-1223512': <CalcType.GGA_Structure_Optimization: 'GGA Structure Optimization'>, 'mp-1332611': <CalcType.GGA_Static: 'GGA Static'>, 'mp-1776897': <CalcType.GGA_Static: 'GGA Static'>, 'mp-2912124': <CalcType.r2SCAN_Structure_Optimization: 'r2SCAN Structure Optimization'>}"
mp-1223527,K1 Mg3 Al1 Ge3 O10 F2,2.9396999999999993,"{'mp-1223527': <CalcType.GGA_Structure_Optimization: 'GGA Structure Optimization'>, 'mp-1375816': <CalcType.GGA_Static: 'GGA Static'>}"
mp-1233215,Rb1 Mg1 Cu2 H3 S2 O10,1.7792,"{'mp-1233215': <CalcType.GGA_Static: 'GGA Static'>, 'mp-1234216': <CalcType.GGA_Structure_Optimization: 'GGA Structure Optimization'>}"
mp-1233148,K1 Ca1 Ni2 H3 Se2 O10,1.7653,"{'mp-1233148': <CalcType.GGA_U_Structure_Optimization: 'GGA+U Structure Optimization'>, 'mp-1233842': <CalcType.GGA_U_Static: 'GGA+U Static'>}"
mp-1228163,Ca2 Mn2 Zn2 As4 H6 O20,2.748599999999999,"{'mp-1228163': <CalcType.GGA_U_Structure_Optimization: 'GGA+U Structure Optimization'>, 'mp-1238415': <CalcType.GGA_U_Structure_Optimization: 'GGA+U Structure Optimization'>, 'mp-1375485': <CalcType.GGA_U_Static: 'GGA+U Static'>, 'mp-1292618': <CalcType.GGA_U_Static: 'GGA+U Static'>, 'mp-1295176': <CalcType.GGA_U_Static: 'GGA+U Static'>, 'mp-1309426': <CalcType.GGA_U_Structure_Optimization: 'GGA+U Structure Optimization'>, 'mp-1301222': <CalcType.GGA_U_Static: 'GGA+U Static'>, 'mp-1313954': <CalcType.GGA_U_Structure_Optimization: 'GGA+U Structure Optimization'>, 'mp-1308801': <CalcType.GGA_U_Structure_Optimization: 'GGA+U Structure Optimization'>, 'mp-1308096': <CalcType.GGA_U_Static: 'GGA+U Static'>, 'mp-1306622': <CalcType.GGA_U_Structure_Optimization: 'GGA+U Structure Optimization'>, 'mp-1311862': <CalcType.GGA_U_Static: 'GGA+U Static'>, 'mp-1321596': <CalcType.GGA_U_Structure_Optimization: 'GGA+U Structure Optimization'>, 'mp-1320855': <CalcType.GGA_U_Structure_Optimization: 'GGA+U Structure Optimization'>, 'mp-1311938': <CalcType.GGA_U_Static: 'GGA+U Static'>, 'mp-1311960': <CalcType.GGA_U_Structure_Optimization: 'GGA+U Structure Optimization'>, 'mp-1306761': <CalcType.GGA_U_Static: 'GGA+U Static'>, 'mp-1314274': <CalcType.GGA_U_Structure_Optimization: 'GGA+U Structure Optimization'>, 'mp-1310566': <CalcType.GGA_U_Static: 'GGA+U Static'>, 'mp-1315160': <CalcType.GGA_U_Structure_Optimization: 'GGA+U Structure Optimization'>, 'mp-1306972': <CalcType.GGA_U_Structure_Optimization: 'GGA+U Structure Optimization'>, 'mp-1322731': <CalcType.GGA_U_Static: 'GGA+U Static'>, 'mp-1314531': <CalcType.GGA_U_Static: 'GGA+U Static'>}"
mp-1232990,K1 Li1 Ni2 H3 Se2 O10,0.208299999999999,"{'mp-1232990': <CalcType.GGA_U_Static: 'GGA+U Static'>, 'mp-1235549': <CalcType.GGA_U_Structure_Optimization: 'GGA+U Structure Optimization'>}"
mp-1233327,Rb1 Mg1 Cu2 H3 S2 O10,1.9152,"{'mp-1233327': <CalcType.GGA_Static: 'GGA Static'>, 'mp-1233596': <CalcType.GGA_Structure_Optimization: 'GGA Structure Optimization'>}"
mp-1233549,K1 Mg1 Ni2 H3 Se2 O10,1.8690000000000002,"{'mp-1233549': <CalcType.GGA_U_Structure_Optimization: 'GGA+U Structure Optimization'>, 'mp-1234507': <CalcType.GGA_U_Static: 'GGA+U Static'>}"
mp-1233117,K1 Ca1 Ni2 H3 Se2 O10,2.2301,"{'mp-1233117': <CalcType.GGA_U_Static: 'GGA+U Static'>, 'mp-1233271': <CalcType.GGA_U_Structure_Optimization: 'GGA+U Structure Optimization'>, 'mp-1233573': <CalcType.GGA_U_Structure_Optimization: 'GGA+U Structure Optimization'>, 'mp-1234127': <CalcType.GGA_U_Static: 'GGA+U Static'>}"
mp-1233370,Rb1 Mg1 Cu2 H3 S2 O10,1.3634,"{'mp-1233370': <CalcType.GGA_Structure_Optimization: 'GGA Structure Optimization'>, 'mp-1233863': <CalcType.GGA_Static: 'GGA Static'>}"
mp-1234049,K1 Mg1 Ni2 H3 Se2 O10,0.0,"{'mp-1234049': <CalcType.GGA_U_Structure_Optimization: 'GGA+U Structure Optimization'>, 'mp-1234444': <CalcType.GGA_U_Static: 'GGA+U Static'>}"
mp-1234044,Ba1 Mg1 V2 Ni3 H2 O10,0.0,"{'mp-1234044': <CalcType.GGA_U_Static: 'GGA+U Static'>, 'mp-1234568': <CalcType.GGA_U_Structure_Optimization: 'GGA+U Structure Optimization'>}"
mp-1234797,K1 Ca1 Ni2 H3 Se2 O10,0.0,"{'mp-1234797': <CalcType.GGA_U_Static: 'GGA+U Static'>, 'mp-1234805': <CalcType.GGA_U_Structure_Optimization: 'GGA+U Structure Optimization'>}"
mp-1235141,Rb1 Li1 Cu2 H3 S2 O10,0.046900000000000004,"{'mp-1235141': <CalcType.GGA_Structure_Optimization: 'GGA Structure Optimization'>, 'mp-1235965': <CalcType.GGA_Static: 'GGA Static'>}"
mp-1234581,K1 Ca1 Ni2 H3 Se2 O10,2.1295,"{'mp-1234581': <CalcType.GGA_U_Structure_Optimization: 'GGA+U Structure Optimization'>, 'mp-1234858': <CalcType.GGA_U_Static: 'GGA+U Static'>}"
mp-1234433,Ba1 Ca1 V2 Ni3 H2 O10,0.1062,"{'mp-1234433': <CalcType.GGA_U_Structure_Optimization: 'GGA+U Structure Optimization'>, 'mp-1234440': <CalcType.GGA_U_Static: 'GGA+U Static'>}"
mp-1235148,K1 Li1 Ni2 H3 Se2 O10,0.5869000000000001,"{'mp-1235148': <CalcType.GGA_U_Structure_Optimization: 'GGA+U Structure Optimization'>, 'mp-1236528': <CalcType.GGA_U_Static: 'GGA+U Static'>}"
mp-1235151,Ba1 Li1 V2 Ni3 H2 O10,1.211999999999999,"{'mp-1235151': <CalcType.GGA_U_Static: 'GGA+U Static'>, 'mp-1235203': <CalcType.GGA_U_Structure_Optimization: 'GGA+U Structure Optimization'>, 'mp-1235301': <CalcType.GGA_U_Static: 'GGA+U Static'>, 'mp-1236253': <CalcType.GGA_U_Structure_Optimization: 'GGA+U Structure Optimization'>}"
mp-1235164,Rb1 Li1 Cu2 H3 S2 O10,0.008100000000000001,"{'mp-1235164': <CalcType.GGA_Static: 'GGA Static'>, 'mp-1236713': <CalcType.GGA_Structure_Optimization: 'GGA Structure Optimization'>}"
mp-1235672,Ba1 Li1 V2 Ni3 H2 O10,0.0,"{'mp-1235672': <CalcType.GGA_U_Static: 'GGA+U Static'>, 'mp-1236662': <CalcType.GGA_U_Structure_Optimization: 'GGA+U Structure Optimization'>}"
mp-1235564,K1 Li1 Ni2 H3 Se2 O10,0.19390000000000002,"{'mp-1235564': <CalcType.GGA_U_Static: 'GGA+U Static'>, 'mp-1236435': <CalcType.GGA_U_Structure_Optimization: 'GGA+U Structure Optimization'>}"
mp-1235750,Li1 Mn1 V1 P2 H2 O10,0.24680000000000002,"{'mp-1235750': <CalcType.GGA_U_Structure_Optimization: 'GGA+U Structure Optimization'>, 'mp-1235994': <CalcType.GGA_U_Static: 'GGA+U Static'>}"
mp-1307235,Ca4 Mn4 Zn4 As8 H12 O40,1.1903000000000001,"{'mp-1307235': <CalcType.GGA_U_Structure_Optimization: 'GGA+U Structure Optimization'>, 'mp-1307534': <CalcType.GGA_U_Static: 'GGA+U Static'>, 'mp-1886662': <CalcType.GGA_U_Static: 'GGA+U Static'>}"
mp-1391247,Li1 Mn1 V1 P2 H2 O10,0.0,{'mp-1391247': <CalcType.GGA_U_Static: 'GGA+U Static'>}
mp-1404407,Li1 V1 Fe1 P2 H2 O10,0.0,{'mp-1404407': <CalcType.GGA_U_Static: 'GGA+U Static'>}
mp-1293168,Li6 V2 Cr2 P4 H4 O20,1.1033,"{'mp-1293168': <CalcType.GGA_U_Structure_Optimization: 'GGA+U Structure Optimization'>, 'mp-1318314': <CalcType.GGA_U_Static: 'GGA+U Static'>, 'mp-1322061': <CalcType.GGA_U_Static: 'GGA+U Static'>, 'mp-1317639': <CalcType.GGA_U_Static: 'GGA+U Static'>, 'mp-1301292': <CalcType.GGA_U_Structure_Optimization: 'GGA+U Structure Optimization'>, 'mp-1303780': <CalcType.GGA_U_Structure_Optimization: 'GGA+U Structure Optimization'>, 'mp-1306065': <CalcType.GGA_U_Structure_Optimization: 'GGA+U Structure Optimization'>, 'mp-1311310': <CalcType.GGA_U_Structure_Optimization: 'GGA+U Structure Optimization'>, 'mp-1312067': <CalcType.GGA_U_Structure_Optimization: 'GGA+U Structure Optimization'>, 'mp-1317313': <CalcType.GGA_U_Static: 'GGA+U Static'>, 'mp-1306963': <CalcType.GGA_U_Static: 'GGA+U Static'>, 'mp-1322642': <CalcType.GGA_U_Static: 'GGA+U Static'>}"
mp-2215969,Mg1 Mn1 V1 P2 H2 O10,1.1526,"{'mp-2215972': <CalcType.GGA_U_Static: 'GGA+U Static'>, 'mp-2215969': <CalcType.GGA_U_Structure_Optimization: 'GGA+U Structure Optimization'>}"
mp-1236169,K1 Li1 Ni2 H3 Se2 O10,0.2227,"{'mp-1236169': <CalcType.GGA_U_Static: 'GGA+U Static'>, 'mp-1236251': <CalcType.GGA_U_Structure_Optimization: 'GGA+U Structure Optimization'>}"
mp-1236531,Rb1 Li1 Cu2 H3 S2 O10,0.0,"{'mp-1236531': <CalcType.GGA_Structure_Optimization: 'GGA Structure Optimization'>, 'mp-1236704': <CalcType.GGA_Static: 'GGA Static'>}"
mp-1374975,Li3 V1 Cr1 P2 H2 O10,0.0,{'mp-1374975': <CalcType.GGA_U_Static: 'GGA+U Static'>}
mp-1386193,Li1 V1 Cr1 P2 H2 O10,0.0,{'mp-1386193': <CalcType.GGA_U_Static: 'GGA+U Static'>}
mp-2228370,Mg1 Fe2 Cu1 As2 H2 O10,0.43849999999999906,"{'mp-2228370': <CalcType.GGA_U_Structure_Optimization: 'GGA+U Structure Optimization'>, 'mp-2228854': <CalcType.GGA_U_Static: 'GGA+U Static'>}"
mp-2230044,K2 Mg1 Cr2 Cd1 H4 O10,0.981499999999999,"{'mp-2230061': <CalcType.GGA_U_Static: 'GGA+U Static'>, 'mp-2230044': <CalcType.GGA_U_Structure_Optimization: 'GGA+U Structure Optimization'>}"
mp-2231703,Na1 Mg1 Cr2 In1 H4 O10,1.1299000000000001,{'mp-2231703': <CalcType.GGA_U_Structure_Optimization: 'GGA+U Structure Optimization'>}
mp-2228375,Mg1 Fe2 Cu1 As2 H2 O10,0.24920000000000003,{'mp-2228375': <CalcType.GGA_U_Structure_Optimization: 'GGA+U Structure Optimization'>}