Material ID,Composition,Band Gap,Calc Types
mp-24710,V4 B4 P8 H20 N4 O36,2.1173,"{'mp-950701': <CalcType.GGA_U_NSCF_Line: 'GGA+U NSCF Line'>, 'mp-949857': <CalcType.GGA_U_NSCF_Line: 'GGA+U NSCF Line'>, 'mp-939400': <CalcType.GGA_U_Static: 'GGA+U Static'>, 'mp-25798': <CalcType.GGA_U_Structure_Optimization: 'GGA+U Structure Optimization'>, 'mp-1244786': <CalcType.GGA_U_Structure_Optimization: 'GGA+U Structure Optimization'>, 'mp-721932': <CalcType.GGA_U_Structure_Optimization: 'GGA+U Structure Optimization'>, 'mp-24710': <CalcType.GGA_Structure_Optimization: 'GGA Structure Optimization'>, 'mp-1937998': <CalcType.GGA_U_Static: 'GGA+U Static'>}"
mp-24761,Rb4 Ga4 B4 P8 H4 O36,4.8043,"{'mp-860648': <CalcType.GGA_NSCF_Line: 'GGA NSCF Line'>, 'mp-729606': <CalcType.GGA_Static: 'GGA Static'>, 'mp-24761': <CalcType.GGA_Structure_Optimization: 'GGA Structure Optimization'>, 'mp-1355590': <CalcType.GGA_Static: 'GGA Static'>, 'mp-738215': <CalcType.GGA_NSCF_Line: 'GGA NSCF Line'>, 'mp-1867685': <CalcType.GGA_Static: 'GGA Static'>, 'mp-2897659': <CalcType.r2SCAN_Structure_Optimization: 'r2SCAN Structure Optimization'>}"
mp-24757,Al4 B4 P8 H20 N4 O36,5.4268,"{'mp-860111': <CalcType.GGA_NSCF_Line: 'GGA NSCF Line'>, 'mp-744809': <CalcType.GGA_Static: 'GGA Static'>, 'mp-24757': <CalcType.GGA_Structure_Optimization: 'GGA Structure Optimization'>, 'mp-1254356': <CalcType.GGA_NMR_Nuclear_Shielding: 'GGA NMR Nuclear Shielding'>, 'mp-1260489': <CalcType.GGA_NMR_Electric_Field_Gradient: 'GGA NMR Electric Field Gradient'>, 'mp-1267126': <CalcType.GGA_Structure_Optimization: 'GGA Structure Optimization'>, 'mp-1351897': <CalcType.GGA_Static: 'GGA Static'>, 'mp-750948': <CalcType.GGA_NSCF_Line: 'GGA NSCF Line'>, 'mp-1890909': <CalcType.GGA_Static: 'GGA Static'>}"
mp-555189,Rb8 Li4 C12 S12 O36 F36,5.9665,"{'mp-843531': <CalcType.GGA_NSCF_Line: 'GGA NSCF Line'>, 'mp-667911': <CalcType.GGA_Static: 'GGA Static'>, 'mp-709592': <CalcType.GGA_NSCF_Line: 'GGA NSCF Line'>, 'mp-555189': <CalcType.GGA_Structure_Optimization: 'GGA Structure Optimization'>, 'mp-1334506': <CalcType.GGA_Static: 'GGA Static'>}"
mp-562382,Na4 Co4 B4 P8 H8 O36,3.3144,"{'mp-663346': <CalcType.GGA_U_Static: 'GGA+U Static'>, 'mp-601388': <CalcType.GGA_U_Structure_Optimization: 'GGA+U Structure Optimization'>, 'mp-678624': <CalcType.GGA_U_NSCF_Line: 'GGA+U NSCF Line'>, 'mp-562949': <CalcType.GGA_Structure_Optimization: 'GGA Structure Optimization'>, 'mp-562382': <CalcType.GGA_Structure_Optimization: 'GGA Structure Optimization'>, 'mp-1355576': <CalcType.GGA_U_Static: 'GGA+U Static'>, 'mp-1878879': <CalcType.GGA_U_Static: 'GGA+U Static'>}"
mp-605166,K4 Dy4 H8 C8 S4 O36,3.0557,"{'mp-657802': <CalcType.GGA_Static: 'GGA Static'>, 'mp-665515': <CalcType.GGA_NSCF_Line: 'GGA NSCF Line'>, 'mp-605166': <CalcType.GGA_Structure_Optimization: 'GGA Structure Optimization'>, 'mp-680669': <CalcType.GGA_NSCF_Line: 'GGA NSCF Line'>, 'mp-1180903': <CalcType.GGA_Structure_Optimization: 'GGA Structure Optimization'>, 'mp-1356407': <CalcType.GGA_Static: 'GGA Static'>, 'mp-1873762': <CalcType.GGA_Static: 'GGA Static'>}"
mp-605302,Dy4 H24 C24 Cl12 O36 F24,4.2862,"{'mp-655145': <CalcType.GGA_Structure_Optimization: 'GGA Structure Optimization'>, 'mp-659846': <CalcType.GGA_Static: 'GGA Static'>, 'mp-669901': <CalcType.GGA_NSCF_Line: 'GGA NSCF Line'>, 'mp-605302': <CalcType.GGA_Structure_Optimization: 'GGA Structure Optimization'>, 'mp-1182294': <CalcType.GGA_Structure_Optimization: 'GGA Structure Optimization'>, 'mp-1198562': <CalcType.GGA_Structure_Optimization: 'GGA Structure Optimization'>, 'mp-1338687': <CalcType.GGA_Static: 'GGA Static'>}"
mp-605688,Gd4 H24 C24 Cl12 O36 F24,3.1422,"{'mp-605688': <CalcType.GGA_Structure_Optimization: 'GGA Structure Optimization'>, 'mp-659059': <CalcType.GGA_Static: 'GGA Static'>, 'mp-679646': <CalcType.GGA_NSCF_Line: 'GGA NSCF Line'>, 'mp-1181273': <CalcType.GGA_Structure_Optimization: 'GGA Structure Optimization'>, 'mp-1334815': <CalcType.GGA_Static: 'GGA Static'>}"
mp-707938,Mg4 H72 C16 S4 N32 O36,5.3063,"{'mp-1338739': <CalcType.GGA_Static: 'GGA Static'>, 'mp-2911531': <CalcType.r2SCAN_Structure_Optimization: 'r2SCAN Structure Optimization'>, 'mp-729022': <CalcType.GGA_Static: 'GGA Static'>, 'mp-864183': <CalcType.GGA_NSCF_Line: 'GGA NSCF Line'>, 'mp-707938': <CalcType.GGA_Structure_Optimization: 'GGA Structure Optimization'>, 'mp-737990': <CalcType.GGA_NSCF_Line: 'GGA NSCF Line'>}"
mp-709428,Y4 H32 C8 S8 N4 O36,1.4786000000000001,"{'mp-729890': <CalcType.GGA_Static: 'GGA Static'>, 'mp-709428': <CalcType.GGA_Structure_Optimization: 'GGA Structure Optimization'>, 'mp-1178780': <CalcType.GGA_Structure_Optimization: 'GGA Structure Optimization'>, 'mp-1329662': <CalcType.GGA_Static: 'GGA Static'>, 'mp-1845129': <CalcType.GGA_Static: 'GGA Static'>}"
mp-721235,V4 H96 C32 S8 N8 O36,3.1064,"{'mp-833868': <CalcType.GGA_Static: 'GGA Static'>, 'mp-1333697': <CalcType.GGA_U_Static: 'GGA+U Static'>, 'mp-745144': <CalcType.GGA_U_Structure_Optimization: 'GGA+U Structure Optimization'>, 'mp-818707': <CalcType.GGA_U_Static: 'GGA+U Static'>, 'mp-733956': <CalcType.GGA_Static: 'GGA Static'>, 'mp-721235': <CalcType.GGA_Structure_Optimization: 'GGA Structure Optimization'>}"
mp-729136,Mn4 P12 H40 C12 N4 O36,4.7284,"{'mp-743546': <CalcType.GGA_U_Structure_Optimization: 'GGA+U Structure Optimization'>, 'mp-818504': <CalcType.GGA_U_Static: 'GGA+U Static'>, 'mp-729136': <CalcType.GGA_Static: 'GGA Static'>, 'mp-1364149': <CalcType.GGA_U_Static: 'GGA+U Static'>, 'mp-1846274': <CalcType.GGA_U_Static: 'GGA+U Static'>}"
mp-735184,Al4 V4 P8 C8 N8 O36,2.2879,"{'mp-1197232': <CalcType.GGA_U_Structure_Optimization: 'GGA+U Structure Optimization'>, 'mp-735184': <CalcType.GGA_Static: 'GGA Static'>, 'mp-841277': <CalcType.GGA_NSCF_Line: 'GGA NSCF Line'>, 'mp-825223': <CalcType.GGA_U_NSCF_Line: 'GGA+U NSCF Line'>, 'mp-833881': <CalcType.GGA_Static: 'GGA Static'>, 'mp-824893': <CalcType.GGA_U_NSCF_Line: 'GGA+U NSCF Line'>, 'mp-840528': <CalcType.GGA_NSCF_Line: 'GGA NSCF Line'>, 'mp-1851023': <CalcType.GGA_U_Static: 'GGA+U Static'>, 'mp-1983912': <CalcType.GGA_U_Static: 'GGA+U Static'>}"
mp-738663,Sn8 H40 C16 N8 O36 F8,2.518799999999999,"{'mp-849002': <CalcType.GGA_NSCF_Line: 'GGA NSCF Line'>, 'mp-746044': <CalcType.GGA_Static: 'GGA Static'>, 'mp-738663': <CalcType.GGA_Structure_Optimization: 'GGA Structure Optimization'>, 'mp-1335371': <CalcType.GGA_Static: 'GGA Static'>, 'mp-751037': <CalcType.GGA_NSCF_Line: 'GGA NSCF Line'>, 'mp-1629396': <CalcType.GGA_NSCF_Line: 'GGA NSCF Line'>}"
mp-757463,Cs4 Fe4 B4 P8 H4 O36,2.7398,"{'mp-796822': <CalcType.GGA_U_Static: 'GGA+U Static'>, 'mp-797640': <CalcType.GGA_U_NSCF_Line: 'GGA+U NSCF Line'>, 'mp-761395': <CalcType.GGA_U_Structure_Optimization: 'GGA+U Structure Optimization'>, 'mp-1356773': <CalcType.GGA_U_Static: 'GGA+U Static'>, 'mp-828955': <CalcType.GGA_NSCF_Line: 'GGA NSCF Line'>, 'mp-780981': <CalcType.GGA_Static: 'GGA Static'>, 'mp-757463': <CalcType.GGA_Structure_Optimization: 'GGA Structure Optimization'>, 'mp-826961': <CalcType.GGA_NSCF_Line: 'GGA NSCF Line'>, 'mp-826062': <CalcType.GGA_Static: 'GGA Static'>, 'mp-1897432': <CalcType.GGA_U_Static: 'GGA+U Static'>}"
mp-766957,Fe4 B4 P8 H20 N4 O36,2.1163,"{'mp-808872': <CalcType.GGA_U_NSCF_Line: 'GGA+U NSCF Line'>, 'mp-802100': <CalcType.GGA_U_Static: 'GGA+U Static'>, 'mp-766957': <CalcType.GGA_U_Structure_Optimization: 'GGA+U Structure Optimization'>, 'mp-1349307': <CalcType.GGA_U_Static: 'GGA+U Static'>, 'mp-831752': <CalcType.GGA_NSCF_Line: 'GGA NSCF Line'>, 'mp-809776': <CalcType.GGA_U_NSCF_Line: 'GGA+U NSCF Line'>, 'mp-830800': <CalcType.GGA_NSCF_Line: 'GGA NSCF Line'>, 'mp-828146': <CalcType.GGA_Static: 'GGA Static'>, 'mp-1680194': <CalcType.GGA_U_NSCF_Uniform: 'GGA+U NSCF Uniform'>, 'mp-1910179': <CalcType.GGA_U_Static: 'GGA+U Static'>}"
mp-767613,Rb4 V4 B4 P8 H4 O36,2.0854,"{'mp-767613': <CalcType.GGA_U_Structure_Optimization: 'GGA+U Structure Optimization'>, 'mp-802409': <CalcType.GGA_U_Static: 'GGA+U Static'>, 'mp-809981': <CalcType.GGA_U_NSCF_Line: 'GGA+U NSCF Line'>, 'mp-1356998': <CalcType.GGA_U_Static: 'GGA+U Static'>, 'mp-810743': <CalcType.GGA_U_NSCF_Line: 'GGA+U NSCF Line'>, 'mp-883392': <CalcType.GGA_Static: 'GGA Static'>, 'mp-1886918': <CalcType.GGA_U_Static: 'GGA+U Static'>}"
mp-759611,Ba4 Li4 Ca4 V4 P8 O36,2.02,"{'mp-800203': <CalcType.GGA_U_Static: 'GGA+U Static'>, 'mp-804801': <CalcType.GGA_U_NSCF_Line: 'GGA+U NSCF Line'>, 'mp-763851': <CalcType.GGA_U_Structure_Optimization: 'GGA+U Structure Optimization'>, 'mp-1363414': <CalcType.GGA_U_Static: 'GGA+U Static'>, 'mp-806331': <CalcType.GGA_U_NSCF_Line: 'GGA+U NSCF Line'>, 'mp-759611': <CalcType.GGA_Structure_Optimization: 'GGA Structure Optimization'>, 'mp-881308': <CalcType.GGA_Static: 'GGA Static'>, 'mp-1938037': <CalcType.GGA_U_Static: 'GGA+U Static'>}"
mp-757312,Na4 In4 B4 P8 H4 O36,4.1029,"{'mp-757312': <CalcType.GGA_Structure_Optimization: 'GGA Structure Optimization'>, 'mp-850614': <CalcType.GGA_Static: 'GGA Static'>, 'mp-851772': <CalcType.GGA_NSCF_Line: 'GGA NSCF Line'>, 'mp-1200856': <CalcType.GGA_Structure_Optimization: 'GGA Structure Optimization'>, 'mp-1359812': <CalcType.GGA_Static: 'GGA Static'>, 'mp-995729': <CalcType.GGA_NSCF_Line: 'GGA NSCF Line'>, 'mp-1891092': <CalcType.GGA_Static: 'GGA Static'>}"
mp-1192032,Na1 Sr3 Be3 B3 O9 F4,4.7554,"{'mp-1192032': <CalcType.GGA_Structure_Optimization: 'GGA Structure Optimization'>, 'mp-1435881': <CalcType.GGA_Static: 'GGA Static'>, 'mp-1709268': <CalcType.GGA_NSCF_Uniform: 'GGA NSCF Uniform'>, 'mp-1609085': <CalcType.GGA_NSCF_Line: 'GGA NSCF Line'>, 'mp-2172192': <CalcType.GGA_NSCF_Line: 'GGA NSCF Line'>, 'mp-2711519': <CalcType.GGA_NSCF_Line: 'GGA NSCF Line'>}"
mp-1213331,Ga8 P8 H36 N8 O36 F4,4.2977,"{'mp-1213331': <CalcType.GGA_Structure_Optimization: 'GGA Structure Optimization'>, 'mp-1849262': <CalcType.GGA_Static: 'GGA Static'>}"
mp-707294,Zn4 P8 H60 C20 N4 O36,4.9067,"{'mp-732847': <CalcType.GGA_NSCF_Line: 'GGA NSCF Line'>, 'mp-728100': <CalcType.GGA_Static: 'GGA Static'>, 'mp-707294': <CalcType.GGA_Structure_Optimization: 'GGA Structure Optimization'>, 'mp-1336035': <CalcType.GGA_Static: 'GGA Static'>, 'mp-737466': <CalcType.GGA_NSCF_Line: 'GGA NSCF Line'>}"
mp-1193243,Co2 B2 P4 H2 Pb2 O18,3.2483,"{'mp-1193243': <CalcType.GGA_U_Structure_Optimization: 'GGA+U Structure Optimization'>, 'mp-1840063': <CalcType.GGA_U_Static: 'GGA+U Static'>, 'mp-1983715': <CalcType.GGA_U_Static: 'GGA+U Static'>}"
mp-1183871,Co2 B2 P4 H2 Pb2 O18,3.324,"{'mp-1183871': <CalcType.GGA_U_Structure_Optimization: 'GGA+U Structure Optimization'>, 'mp-1344373': <CalcType.GGA_U_Static: 'GGA+U Static'>, 'mp-1836290': <CalcType.GGA_U_Static: 'GGA+U Static'>}"
mp-1193408,K2 In2 B2 P4 H2 O18,4.1152,"{'mp-1193408': <CalcType.GGA_Structure_Optimization: 'GGA Structure Optimization'>, 'mp-1238363': <CalcType.GGA_Structure_Optimization: 'GGA Structure Optimization'>, 'mp-1412089': <CalcType.GGA_Static: 'GGA Static'>, 'mp-1759699': <CalcType.GGA_NSCF_Uniform: 'GGA NSCF Uniform'>, 'mp-1837379': <CalcType.GGA_Static: 'GGA Static'>, 'mp-1638295': <CalcType.GGA_NSCF_Line: 'GGA NSCF Line'>, 'mp-2152265': <CalcType.GGA_NSCF_Line: 'GGA NSCF Line'>, 'mp-2325745': <CalcType.GGA_NSCF_Line: 'GGA NSCF Line'>, 'mp-2911869': <CalcType.r2SCAN_Structure_Optimization: 'r2SCAN Structure Optimization'>}"
mp-1204315,U2 H20 C8 S2 N6 O18,1.5708000000000002,"{'mp-1204315': <CalcType.GGA_Structure_Optimization: 'GGA Structure Optimization'>, 'mp-1881611': <CalcType.GGA_Static: 'GGA Static'>, 'mp-1987504': <CalcType.GGA_Static: 'GGA Static'>}"
mp-1204596,Ba2 P6 H20 C6 N2 O18,5.6733,"{'mp-1204596': <CalcType.GGA_Structure_Optimization: 'GGA Structure Optimization'>, 'mp-1884837': <CalcType.GGA_Static: 'GGA Static'>, 'mp-1983612': <CalcType.GGA_Static: 'GGA Static'>}"
mp-23809,Rb2 Sc2 B2 P4 H2 O18,4.806,"{'mp-743008': <CalcType.GGA_NSCF_Line: 'GGA NSCF Line'>, 'mp-731901': <CalcType.GGA_Static: 'GGA Static'>, 'mp-23809': <CalcType.GGA_Structure_Optimization: 'GGA Structure Optimization'>, 'mp-1443951': <CalcType.GGA_Static: 'GGA Static'>, 'mp-1758216': <CalcType.GGA_NSCF_Uniform: 'GGA NSCF Uniform'>, 'mp-1842508': <CalcType.GGA_Static: 'GGA Static'>, 'mp-749728': <CalcType.GGA_NSCF_Line: 'GGA NSCF Line'>, 'mp-1624643': <CalcType.GGA_NSCF_Line: 'GGA NSCF Line'>, 'mp-2155262': <CalcType.GGA_NSCF_Line: 'GGA NSCF Line'>, 'mp-2309541': <CalcType.GGA_NSCF_Line: 'GGA NSCF Line'>, 'mp-2901639': <CalcType.r2SCAN_Structure_Optimization: 'r2SCAN Structure Optimization'>}"
mp-23808,K2 Sc2 B2 P4 H2 O18,4.8467,"{'mp-725324': <CalcType.GGA_Static: 'GGA Static'>, 'mp-739703': <CalcType.GGA_NSCF_Line: 'GGA NSCF Line'>, 'mp-23808': <CalcType.GGA_Structure_Optimization: 'GGA Structure Optimization'>, 'mp-1388907': <CalcType.GGA_Static: 'GGA Static'>, 'mp-1758761': <CalcType.GGA_NSCF_Uniform: 'GGA NSCF Uniform'>, 'mp-1838234': <CalcType.GGA_Static: 'GGA Static'>, 'mp-1626607': <CalcType.GGA_NSCF_Line: 'GGA NSCF Line'>, 'mp-747086': <CalcType.GGA_NSCF_Line: 'GGA NSCF Line'>, 'mp-2155280': <CalcType.GGA_NSCF_Line: 'GGA NSCF Line'>, 'mp-2309909': <CalcType.GGA_NSCF_Line: 'GGA NSCF Line'>}"
mp-541794,K2 Fe2 B2 P4 H2 O18,2.505899999999999,"{'mp-736094': <CalcType.GGA_U_Static: 'GGA+U Static'>, 'mp-635134': <CalcType.GGA_U_Structure_Optimization: 'GGA+U Structure Optimization'>, 'mp-737836': <CalcType.GGA_U_NSCF_Line: 'GGA+U NSCF Line'>, 'mp-541794': <CalcType.GGA_Structure_Optimization: 'GGA Structure Optimization'>, 'mp-1443062': <CalcType.GGA_U_Static: 'GGA+U Static'>, 'mp-1761411': <CalcType.GGA_U_NSCF_Uniform: 'GGA+U NSCF Uniform'>, 'mp-1843535': <CalcType.GGA_U_Static: 'GGA+U Static'>, 'mp-745602': <CalcType.GGA_U_NSCF_Line: 'GGA+U NSCF Line'>, 'mp-1617284': <CalcType.GGA_U_NSCF_Line: 'GGA+U NSCF Line'>, 'mp-2167459': <CalcType.GGA_U_NSCF_Line: 'GGA+U NSCF Line'>, 'mp-2335529': <CalcType.GGA_U_NSCF_Line: 'GGA+U NSCF Line'>}"
mp-24828,Ba4 Co4 B4 P8 H4 O36,2.5883000000000003,"{'mp-818011': <CalcType.GGA_U_Static: 'GGA+U Static'>, 'mp-823891': <CalcType.GGA_U_NSCF_Line: 'GGA+U NSCF Line'>, 'mp-633596': <CalcType.GGA_U_Structure_Optimization: 'GGA+U Structure Optimization'>, 'mp-25676': <CalcType.GGA_U_Structure_Optimization: 'GGA+U Structure Optimization'>, 'mp-24828': <CalcType.GGA_Structure_Optimization: 'GGA Structure Optimization'>, 'mp-1280600': <CalcType.GGA_U_Structure_Optimization: 'GGA+U Structure Optimization'>, 'mp-1280618': <CalcType.GGA_U_Static: 'GGA+U Static'>, 'mp-1305017': <CalcType.GGA_U_Structure_Optimization: 'GGA+U Structure Optimization'>, 'mp-1304314': <CalcType.GGA_U_Static: 'GGA+U Static'>, 'mp-1322411': <CalcType.GGA_U_Structure_Optimization: 'GGA+U Structure Optimization'>, 'mp-1309161': <CalcType.GGA_U_Static: 'GGA+U Static'>, 'mp-1312915': <CalcType.GGA_U_Static: 'GGA+U Static'>, 'mp-1312990': <CalcType.GGA_U_Structure_Optimization: 'GGA+U Structure Optimization'>, 'mp-1394100': <CalcType.GGA_U_Static: 'GGA+U Static'>, 'mp-1567004': <CalcType.GGA_U_Structure_Optimization: 'GGA+U Structure Optimization'>, 'mp-1565703': <CalcType.GGA_U_Structure_Optimization: 'GGA+U Structure Optimization'>, 'mp-1638442': <CalcType.GGA_U_Static: 'GGA+U Static'>, 'mp-1639557': <CalcType.GGA_U_Static: 'GGA+U Static'>, 'mp-1641367': <CalcType.GGA_U_Structure_Optimization: 'GGA+U Structure Optimization'>, 'mp-1651724': <CalcType.GGA_U_Static: 'GGA+U Static'>, 'mp-1638671': <CalcType.GGA_U_Structure_Optimization: 'GGA+U Structure Optimization'>, 'mp-1639227': <CalcType.GGA_U_Structure_Optimization: 'GGA+U Structure Optimization'>, 'mp-1650231': <CalcType.GGA_U_Structure_Optimization: 'GGA+U Structure Optimization'>, 'mp-1645139': <CalcType.GGA_U_Static: 'GGA+U Static'>, 'mp-1646510': <CalcType.GGA_U_Structure_Optimization: 'GGA+U Structure Optimization'>, 'mp-1639741': <CalcType.GGA_U_Static: 'GGA+U Static'>, 'mp-1639341': <CalcType.GGA_U_Structure_Optimization: 'GGA+U Structure Optimization'>, 'mp-1649293': <CalcType.GGA_U_Static: 'GGA+U Static'>, 'mp-1646611': <CalcType.GGA_U_Structure_Optimization: 'GGA+U Structure Optimization'>, 'mp-1638934': <CalcType.GGA_U_Static: 'GGA+U Static'>, 'mp-1639009': <CalcType.GGA_U_Static: 'GGA+U Static'>, 'mp-1647163': <CalcType.GGA_U_Static: 'GGA+U Static'>, 'mp-1667055': <CalcType.GGA_U_Structure_Optimization: 'GGA+U Structure Optimization'>, 'mp-1667816': <CalcType.GGA_U_Static: 'GGA+U Static'>, 'mp-1761462': <CalcType.GGA_U_NSCF_Uniform: 'GGA+U NSCF Uniform'>, 'mp-1938283': <CalcType.GGA_U_Static: 'GGA+U Static'>, 'mp-824680': <CalcType.GGA_U_NSCF_Line: 'GGA+U NSCF Line'>, 'mp-1617264': <CalcType.GGA_U_NSCF_Line: 'GGA+U NSCF Line'>, 'mp-2167769': <CalcType.GGA_U_NSCF_Line: 'GGA+U NSCF Line'>, 'mp-2691847': <CalcType.GGA_U_NSCF_Line: 'GGA+U NSCF Line'>}"