Material ID,Composition,Band Gap,Calc Types
mp-1446650,Li1 V1 Fe1 P2 O8 F2,0.0,{'mp-1446650': <CalcType.GGA_U_Static: 'GGA+U Static'>}
mp-2232419,Mg1 Mn1 V1 P2 O8 F2,1.0121,"{'mp-2232419': <CalcType.GGA_U_Structure_Optimization: 'GGA+U Structure Optimization'>, 'mp-2232622': <CalcType.GGA_U_Static: 'GGA+U Static'>}"
mp-2224790,Mg1 V1 Fe1 P2 O8 F2,1.6209,{'mp-2224790': <CalcType.GGA_U_Structure_Optimization: 'GGA+U Structure Optimization'>}
mp-2226708,Mg1 V1 Cr1 P2 O8 F2,2.2048,"{'mp-2228643': <CalcType.GGA_U_Structure_Optimization: 'GGA+U Structure Optimization'>, 'mp-2226708': <CalcType.GGA_U_Static: 'GGA+U Static'>, 'mp-2226711': <CalcType.GGA_U_Structure_Optimization: 'GGA+U Structure Optimization'>, 'mp-2226816': <CalcType.GGA_U_Structure_Optimization: 'GGA+U Structure Optimization'>, 'mp-2228744': <CalcType.GGA_U_Static: 'GGA+U Static'>, 'mp-2227148': <CalcType.GGA_U_Static: 'GGA+U Static'>}"
mp-2232382,Ba1 Mg1 Mn1 V2 Ag2 O8,0.41440000000000005,{'mp-2232382': <CalcType.GGA_U_Structure_Optimization: 'GGA+U Structure Optimization'>}
mp-2232521,Rb1 Mg1 V2 Fe1 Ag2 O8,1.0241,{'mp-2232521': <CalcType.GGA_U_Structure_Optimization: 'GGA+U Structure Optimization'>}
mp-2232324,Mg1 Mn1 V1 P2 O8 F2,0.0,"{'mp-2232353': <CalcType.GGA_U_Static: 'GGA+U Static'>, 'mp-2232324': <CalcType.GGA_U_Structure_Optimization: 'GGA+U Structure Optimization'>}"
mp-2229742,Mg1 Fe1 H4 S2 N1 O8,0.0,{'mp-2229742': <CalcType.GGA_U_Structure_Optimization: 'GGA+U Structure Optimization'>}
mp-2232129,Ba1 Mg1 Mn1 V2 Ag2 O8,0.9683,{'mp-2232129': <CalcType.GGA_U_Structure_Optimization: 'GGA+U Structure Optimization'>}
mp-2241265,Mg1 V1 Fe1 P2 O8 F2,1.7326000000000001,"{'mp-2241265': <CalcType.GGA_U_Structure_Optimization: 'GGA+U Structure Optimization'>, 'mp-2241426': <CalcType.GGA_U_Static: 'GGA+U Static'>}"
mp-2240846,Mg1 Mn1 V1 P2 O8 F2,0.0,"{'mp-2241386': <CalcType.GGA_U_Static: 'GGA+U Static'>, 'mp-2240846': <CalcType.GGA_U_Structure_Optimization: 'GGA+U Structure Optimization'>}"
mp-647450,Na4 Ca8 Ti4 Si8 O32 F4,3.4385,"{'mp-647450': <CalcType.GGA_Structure_Optimization: 'GGA Structure Optimization'>, 'mp-1180328': <CalcType.GGA_Structure_Optimization: 'GGA Structure Optimization'>, 'mp-1325120': <CalcType.GGA_Static: 'GGA Static'>, 'mp-1894957': <CalcType.GGA_Static: 'GGA Static'>}"
mp-667200,Na4 Ca8 Ti4 Si8 O32 F4,3.7511,"{'mp-693443': <CalcType.GGA_Static: 'GGA Static'>, 'mp-711056': <CalcType.GGA_NSCF_Line: 'GGA NSCF Line'>, 'mp-667200': <CalcType.GGA_Structure_Optimization: 'GGA Structure Optimization'>, 'mp-717119': <CalcType.GGA_NSCF_Line: 'GGA NSCF Line'>, 'mp-1180285': <CalcType.GGA_Structure_Optimization: 'GGA Structure Optimization'>, 'mp-1249139': <CalcType.GGA_Structure_Optimization: 'GGA Structure Optimization'>, 'mp-1251623': <CalcType.GGA_NMR_Nuclear_Shielding: 'GGA NMR Nuclear Shielding'>, 'mp-1252561': <CalcType.GGA_NMR_Electric_Field_Gradient: 'GGA NMR Electric Field Gradient'>, 'mp-1359174': <CalcType.GGA_Static: 'GGA Static'>, 'mp-1920722': <CalcType.GGA_Static: 'GGA Static'>}"
mp-695694,K1 H18 Os1 N6 Cl4 O8,0.9774,"{'mp-695694': <CalcType.GGA_Structure_Optimization: 'GGA Structure Optimization'>, 'mp-740246': <CalcType.GGA_NSCF_Line: 'GGA NSCF Line'>, 'mp-726208': <CalcType.GGA_Static: 'GGA Static'>, 'mp-1361770': <CalcType.GGA_Static: 'GGA Static'>, 'mp-747263': <CalcType.GGA_NSCF_Line: 'GGA NSCF Line'>, 'mp-1821429': <CalcType.GGA_Static: 'GGA Static'>}"
mp-721013,Zn4 Ga4 P8 H16 N4 O32,3.7033,"{'mp-738092': <CalcType.GGA_NSCF_Line: 'GGA NSCF Line'>, 'mp-733806': <CalcType.GGA_Static: 'GGA Static'>, 'mp-721013': <CalcType.GGA_Structure_Optimization: 'GGA Structure Optimization'>, 'mp-1363925': <CalcType.GGA_Static: 'GGA Static'>, 'mp-745681': <CalcType.GGA_NSCF_Line: 'GGA NSCF Line'>, 'mp-1879952': <CalcType.GGA_Static: 'GGA Static'>}"
mp-720424,K4 Fe2 P4 H6 O16 F4,0.321899999999999,"{'mp-720424': <CalcType.GGA_Structure_Optimization: 'GGA Structure Optimization'>, 'mp-1842398': <CalcType.GGA_U_Static: 'GGA+U Static'>}"
mp-753680,Li3 V1 Cr1 P2 O8 F2,0.622599999999999,"{'mp-1280705': <CalcType.GGA_U_Static: 'GGA+U Static'>, 'mp-1319856': <CalcType.GGA_U_Structure_Optimization: 'GGA+U Structure Optimization'>, 'mp-1304372': <CalcType.GGA_U_Static: 'GGA+U Static'>, 'mp-1304464': <CalcType.GGA_U_Structure_Optimization: 'GGA+U Structure Optimization'>, 'mp-808871': <CalcType.GGA_U_NSCF_Line: 'GGA+U NSCF Line'>, 'mp-766992': <CalcType.GGA_U_Structure_Optimization: 'GGA+U Structure Optimization'>, 'mp-802120': <CalcType.GGA_U_Static: 'GGA+U Static'>, 'mp-753680': <CalcType.GGA_Structure_Optimization: 'GGA Structure Optimization'>, 'mp-1385380': <CalcType.GGA_U_Static: 'GGA+U Static'>, 'mp-809441': <CalcType.GGA_U_NSCF_Line: 'GGA+U NSCF Line'>}"
mp-752825,Li6 Mn2 V2 P4 O16 F4,1.5727000000000002,"{'mp-881925': <CalcType.GGA_Static: 'GGA Static'>, 'mp-1275580': <CalcType.GGA_U_Static: 'GGA+U Static'>, 'mp-1275598': <CalcType.GGA_U_Structure_Optimization: 'GGA+U Structure Optimization'>, 'mp-1310823': <CalcType.GGA_U_Static: 'GGA+U Static'>, 'mp-1304941': <CalcType.GGA_U_Structure_Optimization: 'GGA+U Structure Optimization'>, 'mp-1310173': <CalcType.GGA_U_Static: 'GGA+U Static'>, 'mp-1322112': <CalcType.GGA_U_Structure_Optimization: 'GGA+U Structure Optimization'>, 'mp-1320701': <CalcType.GGA_U_Structure_Optimization: 'GGA+U Structure Optimization'>, 'mp-1314749': <CalcType.GGA_U_Static: 'GGA+U Static'>, 'mp-1319988': <CalcType.GGA_U_Static: 'GGA+U Static'>, 'mp-1317791': <CalcType.GGA_U_Structure_Optimization: 'GGA+U Structure Optimization'>, 'mp-1322272': <CalcType.GGA_U_Structure_Optimization: 'GGA+U Structure Optimization'>, 'mp-1306653': <CalcType.GGA_U_Static: 'GGA+U Static'>, 'mp-1320830': <CalcType.GGA_U_Structure_Optimization: 'GGA+U Structure Optimization'>, 'mp-1316413': <CalcType.GGA_U_Structure_Optimization: 'GGA+U Structure Optimization'>, 'mp-1311218': <CalcType.GGA_U_Structure_Optimization: 'GGA+U Structure Optimization'>, 'mp-1306047': <CalcType.GGA_U_Static: 'GGA+U Static'>, 'mp-1317482': <CalcType.GGA_U_Static: 'GGA+U Static'>, 'mp-1311535': <CalcType.GGA_U_Static: 'GGA+U Static'>, 'mp-804840': <CalcType.GGA_U_NSCF_Line: 'GGA+U NSCF Line'>, 'mp-800188': <CalcType.GGA_U_Static: 'GGA+U Static'>, 'mp-763904': <CalcType.GGA_U_Structure_Optimization: 'GGA+U Structure Optimization'>, 'mp-752825': <CalcType.GGA_Structure_Optimization: 'GGA Structure Optimization'>, 'mp-1401314': <CalcType.GGA_U_Static: 'GGA+U Static'>, 'mp-806353': <CalcType.GGA_U_NSCF_Line: 'GGA+U NSCF Line'>}"
mp-759852,Li3 V3 Cr3 P6 O24 F6,1.368299999999999,"{'mp-765077': <CalcType.GGA_U_Structure_Optimization: 'GGA+U Structure Optimization'>, 'mp-801210': <CalcType.GGA_U_Static: 'GGA+U Static'>, 'mp-806824': <CalcType.GGA_U_NSCF_Line: 'GGA+U NSCF Line'>, 'mp-759852': <CalcType.GGA_Structure_Optimization: 'GGA Structure Optimization'>, 'mp-1331346': <CalcType.GGA_U_Static: 'GGA+U Static'>, 'mp-808169': <CalcType.GGA_U_NSCF_Line: 'GGA+U NSCF Line'>, 'mp-1877453': <CalcType.GGA_U_Static: 'GGA+U Static'>}"
mp-761208,Li4 V2 Fe2 P4 O16 F4,1.6101,"{'mp-800876': <CalcType.GGA_U_NSCF_Line: 'GGA+U NSCF Line'>, 'mp-764494': <CalcType.GGA_U_Structure_Optimization: 'GGA+U Structure Optimization'>, 'mp-799601': <CalcType.GGA_U_Static: 'GGA+U Static'>, 'mp-761208': <CalcType.GGA_Structure_Optimization: 'GGA Structure Optimization'>, 'mp-1348177': <CalcType.GGA_U_Static: 'GGA+U Static'>, 'mp-805192': <CalcType.GGA_U_NSCF_Line: 'GGA+U NSCF Line'>, 'mp-1658920': <CalcType.GGA_U_Static: 'GGA+U Static'>, 'mp-1841293': <CalcType.GGA_U_Static: 'GGA+U Static'>}"
mp-744554,K4 Fe2 P4 H6 O16 F4,0.449,"{'mp-744554': <CalcType.GGA_U_Structure_Optimization: 'GGA+U Structure Optimization'>, 'mp-938703': <CalcType.GGA_U_Static: 'GGA+U Static'>, 'mp-949449': <CalcType.GGA_U_NSCF_Line: 'GGA+U NSCF Line'>, 'mp-948889': <CalcType.GGA_U_NSCF_Line: 'GGA+U NSCF Line'>, 'mp-1358509': <CalcType.GGA_U_Static: 'GGA+U Static'>, 'mp-1873278': <CalcType.GGA_U_Static: 'GGA+U Static'>}"
mp-760260,Li5 V5 Cr5 P10 O40 F10,0.8559000000000001,"{'mp-765173': <CalcType.GGA_U_Structure_Optimization: 'GGA+U Structure Optimization'>, 'mp-801204': <CalcType.GGA_U_Static: 'GGA+U Static'>, 'mp-760260': <CalcType.GGA_Structure_Optimization: 'GGA Structure Optimization'>, 'mp-1332888': <CalcType.GGA_U_Static: 'GGA+U Static'>, 'mp-1774047': <CalcType.GGA_U_Static: 'GGA+U Static'>, 'mp-1878079': <CalcType.GGA_U_Static: 'GGA+U Static'>}"
mp-760187,Li4 V4 Cr4 P8 O32 F8,1.013399999999999,"{'mp-765118': <CalcType.GGA_U_Structure_Optimization: 'GGA+U Structure Optimization'>, 'mp-801216': <CalcType.GGA_U_Static: 'GGA+U Static'>, 'mp-808052': <CalcType.GGA_U_NSCF_Line: 'GGA+U NSCF Line'>, 'mp-760187': <CalcType.GGA_Structure_Optimization: 'GGA Structure Optimization'>, 'mp-1328870': <CalcType.GGA_U_Static: 'GGA+U Static'>, 'mp-808903': <CalcType.GGA_U_NSCF_Line: 'GGA+U NSCF Line'>, 'mp-1888533': <CalcType.GGA_U_Static: 'GGA+U Static'>}"
mp-759783,Li6 V3 Cr3 P6 O24 F6,2.0195,"{'mp-763882': <CalcType.GGA_U_Structure_Optimization: 'GGA+U Structure Optimization'>, 'mp-804272': <CalcType.GGA_U_Static: 'GGA+U Static'>, 'mp-806432': <CalcType.GGA_U_NSCF_Line: 'GGA+U NSCF Line'>, 'mp-759783': <CalcType.GGA_Structure_Optimization: 'GGA Structure Optimization'>, 'mp-1352762': <CalcType.GGA_U_Static: 'GGA+U Static'>, 'mp-808028': <CalcType.GGA_U_NSCF_Line: 'GGA+U NSCF Line'>, 'mp-1883418': <CalcType.GGA_U_Static: 'GGA+U Static'>}"
mp-760317,Li3 V3 Cr3 P6 O24 F6,0.0,"{'mp-1680274': <CalcType.GGA_U_NSCF_Uniform: 'GGA+U NSCF Uniform'>, 'mp-801330': <CalcType.GGA_U_Static: 'GGA+U Static'>, 'mp-765305': <CalcType.GGA_U_Structure_Optimization: 'GGA+U Structure Optimization'>, 'mp-808253': <CalcType.GGA_U_NSCF_Line: 'GGA+U NSCF Line'>, 'mp-760317': <CalcType.GGA_Structure_Optimization: 'GGA Structure Optimization'>, 'mp-1331098': <CalcType.GGA_U_Static: 'GGA+U Static'>, 'mp-808924': <CalcType.GGA_U_NSCF_Line: 'GGA+U NSCF Line'>, 'mp-1863541': <CalcType.GGA_U_Static: 'GGA+U Static'>}"
mp-776087,Li4 Mn2 V2 P4 O16 F4,0.7482000000000001,"{'mp-777226': <CalcType.GGA_U_Structure_Optimization: 'GGA+U Structure Optimization'>, 'mp-776087': <CalcType.GGA_Structure_Optimization: 'GGA Structure Optimization'>, 'mp-1371945': <CalcType.GGA_U_Static: 'GGA+U Static'>, 'mp-1656228': <CalcType.GGA_U_Static: 'GGA+U Static'>, 'mp-1837917': <CalcType.GGA_U_Static: 'GGA+U Static'>}"
mp-776481,Li6 Mn3 V3 P6 O24 F6,0.0,"{'mp-1177880': <CalcType.GGA_U_Structure_Optimization: 'GGA+U Structure Optimization'>, 'mp-776481': <CalcType.GGA_Structure_Optimization: 'GGA Structure Optimization'>, 'mp-1349757': <CalcType.GGA_U_Static: 'GGA+U Static'>, 'mp-1657323': <CalcType.GGA_U_Static: 'GGA+U Static'>, 'mp-1929261': <CalcType.GGA_U_Static: 'GGA+U Static'>, 'mp-1683236': <CalcType.GGA_U_NSCF_Uniform: 'GGA+U NSCF Uniform'>}"
mp-775972,Li4 Mn2 V2 P4 O16 F4,0.6966999999999991,"{'mp-777194': <CalcType.GGA_U_Structure_Optimization: 'GGA+U Structure Optimization'>, 'mp-775972': <CalcType.GGA_Structure_Optimization: 'GGA Structure Optimization'>, 'mp-1358512': <CalcType.GGA_U_Static: 'GGA+U Static'>, 'mp-1842661': <CalcType.GGA_U_Static: 'GGA+U Static'>, 'mp-1679852': <CalcType.GGA_U_NSCF_Uniform: 'GGA+U NSCF Uniform'>}"
mp-776560,Li6 Mn3 V3 P6 O24 F6,0.0947,"{'mp-776560': <CalcType.GGA_Structure_Optimization: 'GGA Structure Optimization'>, 'mp-1883726': <CalcType.GGA_U_Static: 'GGA+U Static'>}"
mp-776588,Li6 Mn3 V3 P6 O24 F6,0.0766,"{'mp-777436': <CalcType.GGA_U_Structure_Optimization: 'GGA+U Structure Optimization'>, 'mp-776588': <CalcType.GGA_Structure_Optimization: 'GGA Structure Optimization'>, 'mp-1352348': <CalcType.GGA_U_Static: 'GGA+U Static'>, 'mp-1883142': <CalcType.GGA_U_Static: 'GGA+U Static'>, 'mp-1680505': <CalcType.GGA_U_NSCF_Uniform: 'GGA+U NSCF Uniform'>}"
mp-775946,Li6 Mn3 V3 P6 O24 F6,0.34080000000000005,"{'mp-1177883': <CalcType.GGA_U_Structure_Optimization: 'GGA+U Structure Optimization'>, 'mp-775946': <CalcType.GGA_Structure_Optimization: 'GGA Structure Optimization'>, 'mp-1352580': <CalcType.GGA_U_Static: 'GGA+U Static'>, 'mp-1658916': <CalcType.GGA_U_Static: 'GGA+U Static'>, 'mp-1769790': <CalcType.GGA_U_Static: 'GGA+U Static'>, 'mp-1872806': <CalcType.GGA_U_Static: 'GGA+U Static'>, 'mp-1681348': <CalcType.GGA_U_NSCF_Uniform: 'GGA+U NSCF Uniform'>}"
mp-861525,Li1 V1 Cr1 P2 O8 F2,0.0,"{'mp-861525': <CalcType.GGA_U_Static: 'GGA+U Static'>, 'mp-869057': <CalcType.GGA_U_Static: 'GGA+U Static'>, 'mp-862347': <CalcType.GGA_U_NSCF_Line: 'GGA+U NSCF Line'>, 'mp-869139': <CalcType.GGA_U_NSCF_Line: 'GGA+U NSCF Line'>, 'mp-869194': <CalcType.GGA_U_NSCF_Line: 'GGA+U NSCF Line'>, 'mp-863516': <CalcType.GGA_U_NSCF_Line: 'GGA+U NSCF Line'>}"
mp-867682,Li2 V2 Cr2 P4 O16 F4,1.4268,"{'mp-867682': <CalcType.GGA_Structure_Optimization: 'GGA Structure Optimization'>, 'mp-1290970': <CalcType.GGA_U_Static: 'GGA+U Static'>, 'mp-1277697': <CalcType.GGA_U_Static: 'GGA+U Static'>, 'mp-1301920': <CalcType.GGA_U_Static: 'GGA+U Static'>, 'mp-1320031': <CalcType.GGA_U_Structure_Optimization: 'GGA+U Structure Optimization'>, 'mp-1302885': <CalcType.GGA_U_Static: 'GGA+U Static'>, 'mp-1302886': <CalcType.GGA_U_Static: 'GGA+U Static'>, 'mp-1309621': <CalcType.GGA_U_Structure_Optimization: 'GGA+U Structure Optimization'>, 'mp-1314912': <CalcType.GGA_U_Structure_Optimization: 'GGA+U Structure Optimization'>, 'mp-1314947': <CalcType.GGA_U_Structure_Optimization: 'GGA+U Structure Optimization'>, 'mp-1313466': <CalcType.GGA_U_Static: 'GGA+U Static'>, 'mp-1302347': <CalcType.GGA_U_Static: 'GGA+U Static'>, 'mp-1308348': <CalcType.GGA_U_Structure_Optimization: 'GGA+U Structure Optimization'>, 'mp-1308438': <CalcType.GGA_U_Structure_Optimization: 'GGA+U Structure Optimization'>, 'mp-1316707': <CalcType.GGA_U_Static: 'GGA+U Static'>, 'mp-1321928': <CalcType.GGA_U_Structure_Optimization: 'GGA+U Structure Optimization'>, 'mp-1315246': <CalcType.GGA_U_Static: 'GGA+U Static'>, 'mp-1319727': <CalcType.GGA_U_Structure_Optimization: 'GGA+U Structure Optimization'>, 'mp-1318989': <CalcType.GGA_U_Structure_Optimization: 'GGA+U Structure Optimization'>, 'mp-868574': <CalcType.GGA_U_Structure_Optimization: 'GGA+U Structure Optimization'>}"
mp-890597,Li4 Mn2 V2 P4 O16 F4,0.0,"{'mp-902752': <CalcType.GGA_U_NSCF_Line: 'GGA+U NSCF Line'>, 'mp-890597': <CalcType.GGA_U_Static: 'GGA+U Static'>, 'mp-903495': <CalcType.GGA_U_NSCF_Line: 'GGA+U NSCF Line'>}"
mp-806951,Li1 V1 Fe1 P2 O8 F2,0.0,{'mp-806951': <CalcType.GGA_U_Static: 'GGA+U Static'>}
mp-777388,Li2 V2 Fe2 P4 O16 F4,1.7350999999999992,"{'mp-1290509': <CalcType.GGA_U_Structure_Optimization: 'GGA+U Structure Optimization'>, 'mp-1298687': <CalcType.GGA_U_Structure_Optimization: 'GGA+U Structure Optimization'>, 'mp-1293156': <CalcType.GGA_U_Static: 'GGA+U Static'>, 'mp-1284697': <CalcType.GGA_U_Static: 'GGA+U Static'>, 'mp-1301173': <CalcType.GGA_U_Structure_Optimization: 'GGA+U Structure Optimization'>, 'mp-1322091': <CalcType.GGA_U_Structure_Optimization: 'GGA+U Structure Optimization'>, 'mp-1319862': <CalcType.GGA_U_Structure_Optimization: 'GGA+U Structure Optimization'>, 'mp-1307188': <CalcType.GGA_U_Static: 'GGA+U Static'>, 'mp-1308692': <CalcType.GGA_U_Static: 'GGA+U Static'>, 'mp-1312434': <CalcType.GGA_U_Structure_Optimization: 'GGA+U Structure Optimization'>, 'mp-1308743': <CalcType.GGA_U_Static: 'GGA+U Static'>, 'mp-1313988': <CalcType.GGA_U_Structure_Optimization: 'GGA+U Structure Optimization'>, 'mp-1318651': <CalcType.GGA_U_Structure_Optimization: 'GGA+U Structure Optimization'>, 'mp-1305238': <CalcType.GGA_U_Static: 'GGA+U Static'>, 'mp-1307522': <CalcType.GGA_U_Structure_Optimization: 'GGA+U Structure Optimization'>, 'mp-1322491': <CalcType.GGA_U_Static: 'GGA+U Static'>, 'mp-1311322': <CalcType.GGA_U_Structure_Optimization: 'GGA+U Structure Optimization'>, 'mp-1321025': <CalcType.GGA_U_Static: 'GGA+U Static'>, 'mp-1314315': <CalcType.GGA_U_Structure_Optimization: 'GGA+U Structure Optimization'>, 'mp-1319540': <CalcType.GGA_U_Structure_Optimization: 'GGA+U Structure Optimization'>, 'mp-1310594': <CalcType.GGA_U_Static: 'GGA+U Static'>, 'mp-1320302': <CalcType.GGA_U_Static: 'GGA+U Static'>, 'mp-1322629': <CalcType.GGA_U_Structure_Optimization: 'GGA+U Structure Optimization'>, 'mp-1305512': <CalcType.GGA_U_Static: 'GGA+U Static'>, 'mp-1306270': <CalcType.GGA_U_Structure_Optimization: 'GGA+U Structure Optimization'>, 'mp-1320467': <CalcType.GGA_U_Static: 'GGA+U Static'>, 'mp-1319728': <CalcType.GGA_U_Static: 'GGA+U Static'>, 'mp-1362456': <CalcType.GGA_U_Static: 'GGA+U Static'>, 'mp-777635': <CalcType.GGA_U_Structure_Optimization: 'GGA+U Structure Optimization'>, 'mp-777388': <CalcType.GGA_Structure_Optimization: 'GGA Structure Optimization'>}"
mp-777400,Li1 Mn1 V1 P2 O8 F2,0.0,"{'mp-1280561': <CalcType.GGA_U_Static: 'GGA+U Static'>, 'mp-1275622': <CalcType.GGA_U_Static: 'GGA+U Static'>, 'mp-1312397': <CalcType.GGA_U_Structure_Optimization: 'GGA+U Structure Optimization'>, 'mp-1314688': <CalcType.GGA_U_Structure_Optimization: 'GGA+U Structure Optimization'>, 'mp-1305062': <CalcType.GGA_U_Structure_Optimization: 'GGA+U Structure Optimization'>, 'mp-1320766': <CalcType.GGA_U_Static: 'GGA+U Static'>, 'mp-1305903': <CalcType.GGA_U_Static: 'GGA+U Static'>, 'mp-1317836': <CalcType.GGA_U_Static: 'GGA+U Static'>, 'mp-1309646': <CalcType.GGA_U_Static: 'GGA+U Static'>, 'mp-1322339': <CalcType.GGA_U_Static: 'GGA+U Static'>, 'mp-1318629': <CalcType.GGA_U_Structure_Optimization: 'GGA+U Structure Optimization'>, 'mp-1316462': <CalcType.GGA_U_Static: 'GGA+U Static'>, 'mp-1318033': <CalcType.GGA_U_Static: 'GGA+U Static'>, 'mp-1316615': <CalcType.GGA_U_Structure_Optimization: 'GGA+U Structure Optimization'>, 'mp-1303209': <CalcType.GGA_U_Structure_Optimization: 'GGA+U Structure Optimization'>, 'mp-1321135': <CalcType.GGA_U_Structure_Optimization: 'GGA+U Structure Optimization'>, 'mp-1314478': <CalcType.GGA_U_Structure_Optimization: 'GGA+U Structure Optimization'>, 'mp-1307795': <CalcType.GGA_U_Structure_Optimization: 'GGA+U Structure Optimization'>, 'mp-778336': <CalcType.GGA_U_Structure_Optimization: 'GGA+U Structure Optimization'>, 'mp-777400': <CalcType.GGA_Structure_Optimization: 'GGA Structure Optimization'>, 'mp-1789772': <CalcType.GGA_U_Static: 'GGA+U Static'>}"
mp-1218640,Sr2 Y1 Cu2 Bi1 Pb1 O8,0.0,"{'mp-1218640': <CalcType.GGA_Structure_Optimization: 'GGA Structure Optimization'>, 'mp-1376804': <CalcType.GGA_Static: 'GGA Static'>, 'mp-1733353': <CalcType.GGA_NSCF_Uniform: 'GGA NSCF Uniform'>, 'mp-1933919': <CalcType.GGA_Static: 'GGA Static'>}"
mp-1203395,U2 H24 C8 Se2 N4 O16,2.2879,"{'mp-1203395': <CalcType.GGA_Structure_Optimization: 'GGA Structure Optimization'>, 'mp-1887028': <CalcType.GGA_Static: 'GGA Static'>, 'mp-1983683': <CalcType.GGA_Static: 'GGA Static'>}"
mp-2232136,K2 Rb1 Tb1 Mg1 V2 O8,1.5741,"{'mp-2232416': <CalcType.GGA_U_Static: 'GGA+U Static'>, 'mp-2232136': <CalcType.GGA_U_Structure_Optimization: 'GGA+U Structure Optimization'>}"
mp-690769,Cu1 P2 H12 N2 O8 F2,0.0582,"{'mp-690769': <CalcType.GGA_Structure_Optimization: 'GGA Structure Optimization'>, 'mp-1049065': <CalcType.GGA_Static: 'GGA Static'>, 'mp-1049102': <CalcType.GGA_NSCF_Line: 'GGA NSCF Line'>, 'mp-1414378': <CalcType.GGA_Static: 'GGA Static'>, 'mp-1672839': <CalcType.GGA_NSCF_Uniform: 'GGA NSCF Uniform'>, 'mp-1932903': <CalcType.GGA_Static: 'GGA Static'>, 'mp-1605183': <CalcType.GGA_NSCF_Line: 'GGA NSCF Line'>, 'mp-1049083': <CalcType.GGA_NSCF_Line: 'GGA NSCF Line'>, 'mp-2138955': <CalcType.GGA_NSCF_Line: 'GGA NSCF Line'>, 'mp-2599782': <CalcType.GGA_NSCF_Line: 'GGA NSCF Line'>}"