Material ID,Composition,Band Gap,Calc Types
mp-1177767,Li4 V2 Fe2 P4 H4 O20,1.758299999999999,"{'mp-1177767': <CalcType.GGA_U_Structure_Optimization: 'GGA+U Structure Optimization'>, 'mp-1290489': <CalcType.GGA_U_Structure_Optimization: 'GGA+U Structure Optimization'>, 'mp-1299518': <CalcType.GGA_U_Static: 'GGA+U Static'>, 'mp-1296367': <CalcType.GGA_U_Static: 'GGA+U Static'>, 'mp-1287577': <CalcType.GGA_U_Static: 'GGA+U Static'>, 'mp-1275758': <CalcType.GGA_U_Static: 'GGA+U Static'>, 'mp-1310082': <CalcType.GGA_U_Static: 'GGA+U Static'>, 'mp-1307858': <CalcType.GGA_U_Static: 'GGA+U Static'>, 'mp-1310856': <CalcType.GGA_U_Structure_Optimization: 'GGA+U Structure Optimization'>, 'mp-1309503': <CalcType.GGA_U_Structure_Optimization: 'GGA+U Structure Optimization'>, 'mp-1309515': <CalcType.GGA_U_Static: 'GGA+U Static'>, 'mp-1310320': <CalcType.GGA_U_Static: 'GGA+U Static'>, 'mp-1322271': <CalcType.GGA_U_Structure_Optimization: 'GGA+U Structure Optimization'>, 'mp-1321582': <CalcType.GGA_U_Structure_Optimization: 'GGA+U Structure Optimization'>, 'mp-1308939': <CalcType.GGA_U_Structure_Optimization: 'GGA+U Structure Optimization'>, 'mp-1314198': <CalcType.GGA_U_Structure_Optimization: 'GGA+U Structure Optimization'>, 'mp-1314221': <CalcType.GGA_U_Static: 'GGA+U Static'>, 'mp-1317219': <CalcType.GGA_U_Static: 'GGA+U Static'>, 'mp-1315036': <CalcType.GGA_U_Static: 'GGA+U Static'>, 'mp-1311357': <CalcType.GGA_U_Structure_Optimization: 'GGA+U Structure Optimization'>, 'mp-1342552': <CalcType.GGA_U_Static: 'GGA+U Static'>, 'mp-1303952': <CalcType.GGA_U_Structure_Optimization: 'GGA+U Structure Optimization'>, 'mp-1303974': <CalcType.GGA_U_Structure_Optimization: 'GGA+U Structure Optimization'>, 'mp-1302501': <CalcType.GGA_U_Structure_Optimization: 'GGA+U Structure Optimization'>, 'mp-1314453': <CalcType.GGA_U_Static: 'GGA+U Static'>, 'mp-1304011': <CalcType.GGA_U_Structure_Optimization: 'GGA+U Structure Optimization'>, 'mp-1315949': <CalcType.GGA_U_Structure_Optimization: 'GGA+U Structure Optimization'>, 'mp-1316726': <CalcType.GGA_U_Static: 'GGA+U Static'>, 'mp-1309274': <CalcType.GGA_U_Static: 'GGA+U Static'>, 'mp-1315261': <CalcType.GGA_U_Structure_Optimization: 'GGA+U Structure Optimization'>, 'mp-1309308': <CalcType.GGA_U_Static: 'GGA+U Static'>, 'mp-1362982': <CalcType.GGA_U_Structure_Optimization: 'GGA+U Structure Optimization'>}"
mp-1196382,Ni1 H44 C12 N8 Cl2 O10,1.7314,"{'mp-1196382': <CalcType.GGA_U_Structure_Optimization: 'GGA+U Structure Optimization'>, 'mp-1330913': <CalcType.GGA_U_Static: 'GGA+U Static'>, 'mp-1895777': <CalcType.GGA_U_Static: 'GGA+U Static'>, 'mp-1583796': <CalcType.GGA_U_NSCF_Line: 'GGA+U NSCF Line'>}"
mp-1199348,Cu1 H44 C12 N8 Cl2 O10,0.0,"{'mp-1199348': <CalcType.GGA_Structure_Optimization: 'GGA Structure Optimization'>, 'mp-1936538': <CalcType.GGA_Static: 'GGA Static'>}"
mp-1200531,Mn1 H44 C12 N8 Cl2 O10,4.0442,"{'mp-1200531': <CalcType.GGA_U_Structure_Optimization: 'GGA+U Structure Optimization'>, 'mp-1349644': <CalcType.GGA_U_Static: 'GGA+U Static'>, 'mp-1681351': <CalcType.GGA_U_NSCF_Uniform: 'GGA+U NSCF Uniform'>, 'mp-1889794': <CalcType.GGA_U_Static: 'GGA+U Static'>}"
mp-1202358,Sr2 Fe2 B2 P4 H4 O20,2.445599999999999,"{'mp-1202358': <CalcType.GGA_U_Structure_Optimization: 'GGA+U Structure Optimization'>, 'mp-1838506': <CalcType.GGA_U_Static: 'GGA+U Static'>}"
mp-1203169,U2 H26 C6 N12 Cl2 O20,2.3357,"{'mp-1203169': <CalcType.GGA_Structure_Optimization: 'GGA Structure Optimization'>, 'mp-1891958': <CalcType.GGA_Static: 'GGA Static'>, 'mp-1983729': <CalcType.GGA_Static: 'GGA Static'>}"
mp-1212425,K4 P8 Pt2 W2 Cl2 O20,1.7432999999999992,"{'mp-1212425': <CalcType.GGA_U_Structure_Optimization: 'GGA+U Structure Optimization'>, 'mp-1875541': <CalcType.GGA_U_Static: 'GGA+U Static'>}"
mp-1233018,Mg1 Mn1 V1 P2 H2 O10,0.888799999999999,"{'mp-1233018': <CalcType.GGA_U_Structure_Optimization: 'GGA+U Structure Optimization'>, 'mp-1233031': <CalcType.GGA_U_Static: 'GGA+U Static'>}"
mp-1348675,Ni1 H44 C12 N8 Cl2 O10,0.0,"{'mp-1348675': <CalcType.GGA_U_Static: 'GGA+U Static'>, 'mp-1681921': <CalcType.GGA_U_NSCF_Uniform: 'GGA+U NSCF Uniform'>}"
mp-1351567,Cu1 H44 C12 N8 Cl2 O10,0.0,"{'mp-1351567': <CalcType.GGA_Static: 'GGA Static'>, 'mp-1683900': <CalcType.GGA_NSCF_Uniform: 'GGA NSCF Uniform'>}"
mp-2229489,Mg1 V1 Cr1 P2 H2 O10,2.056399999999999,"{'mp-2229489': <CalcType.GGA_U_Structure_Optimization: 'GGA+U Structure Optimization'>, 'mp-2241476': <CalcType.GGA_U_Structure_Optimization: 'GGA+U Structure Optimization'>}"
mp-1408232,Sr2 Fe2 B2 P4 H4 O20,0.0,"{'mp-1408232': <CalcType.GGA_U_Static: 'GGA+U Static'>, 'mp-1754453': <CalcType.GGA_U_NSCF_Uniform: 'GGA+U NSCF Uniform'>, 'mp-1618370': <CalcType.GGA_U_NSCF_Line: 'GGA+U NSCF Line'>, 'mp-2111254': <CalcType.GGA_U_NSCF_Line: 'GGA+U NSCF Line'>, 'mp-2302684': <CalcType.GGA_U_NSCF_Line: 'GGA+U NSCF Line'>}"
mp-2230167,K2 Mg1 Mn3 V2 H2 O10,1.6134,{'mp-2230167': <CalcType.GGA_U_Structure_Optimization: 'GGA+U Structure Optimization'>}
mp-696020,Ca2 Re4 H12 C2 N4 O20,3.3871,"{'mp-727021': <CalcType.GGA_Static: 'GGA Static'>, 'mp-740415': <CalcType.GGA_NSCF_Line: 'GGA NSCF Line'>, 'mp-696020': <CalcType.GGA_Structure_Optimization: 'GGA Structure Optimization'>, 'mp-1378533': <CalcType.GGA_Static: 'GGA Static'>, 'mp-1683098': <CalcType.GGA_NSCF_Uniform: 'GGA NSCF Uniform'>, 'mp-1890625': <CalcType.GGA_Static: 'GGA Static'>, 'mp-748380': <CalcType.GGA_NSCF_Line: 'GGA NSCF Line'>}"
mp-624009,Fe4 Te2 W2 C20 Se2 O20,1.9385000000000001,"{'mp-624009': <CalcType.GGA_U_Structure_Optimization: 'GGA+U Structure Optimization'>, 'mp-820749': <CalcType.GGA_U_Static: 'GGA+U Static'>, 'mp-821887': <CalcType.GGA_U_NSCF_Line: 'GGA+U NSCF Line'>, 'mp-837490': <CalcType.GGA_NSCF_Line: 'GGA NSCF Line'>, 'mp-836216': <CalcType.GGA_Static: 'GGA Static'>, 'mp-1343799': <CalcType.GGA_U_Static: 'GGA+U Static'>, 'mp-1865068': <CalcType.GGA_U_Static: 'GGA+U Static'>, 'mp-822611': <CalcType.GGA_U_NSCF_Line: 'GGA+U NSCF Line'>, 'mp-838558': <CalcType.GGA_NSCF_Line: 'GGA NSCF Line'>}"
mp-699555,Cr4 C26 S2 N6 O20 F10,2.0408,"{'mp-823090': <CalcType.GGA_U_NSCF_Line: 'GGA+U NSCF Line'>, 'mp-822221': <CalcType.GGA_U_Static: 'GGA+U Static'>, 'mp-699555': <CalcType.GGA_U_Structure_Optimization: 'GGA+U Structure Optimization'>, 'mp-731111': <CalcType.GGA_Static: 'GGA Static'>, 'mp-839787': <CalcType.GGA_NSCF_Line: 'GGA NSCF Line'>, 'mp-1351786': <CalcType.GGA_U_Static: 'GGA+U Static'>, 'mp-1685292': <CalcType.GGA_U_NSCF_Uniform: 'GGA+U NSCF Uniform'>, 'mp-1846137': <CalcType.GGA_U_Static: 'GGA+U Static'>, 'mp-823782': <CalcType.GGA_U_NSCF_Line: 'GGA+U NSCF Line'>, 'mp-840870': <CalcType.GGA_NSCF_Line: 'GGA NSCF Line'>}"
mp-735824,K5 Li10 Al5 Si20 O50 F10,0.8465,"{'mp-735824': <CalcType.GGA_Structure_Optimization: 'GGA Structure Optimization'>, 'mp-1338452': <CalcType.GGA_Static: 'GGA Static'>}"
mp-746343,Ni1 H44 C12 N8 Cl2 O10,4.5401,"{'mp-746343': <CalcType.GGA_U_Structure_Optimization: 'GGA+U Structure Optimization'>, 'mp-1865015': <CalcType.GGA_U_Static: 'GGA+U Static'>}"
mp-759811,Li4 V2 Cr2 P4 H4 O20,0.0,"{'mp-763879': <CalcType.GGA_U_Structure_Optimization: 'GGA+U Structure Optimization'>, 'mp-804836': <CalcType.GGA_U_NSCF_Line: 'GGA+U NSCF Line'>, 'mp-800231': <CalcType.GGA_U_Static: 'GGA+U Static'>, 'mp-759811': <CalcType.GGA_Structure_Optimization: 'GGA Structure Optimization'>, 'mp-881377': <CalcType.GGA_Static: 'GGA Static'>, 'mp-1361483': <CalcType.GGA_U_Static: 'GGA+U Static'>, 'mp-1837365': <CalcType.GGA_U_Static: 'GGA+U Static'>, 'mp-806342': <CalcType.GGA_U_NSCF_Line: 'GGA+U NSCF Line'>}"
mp-753660,Li2 V1 Cr1 P2 H2 O10,2.134899999999999,"{'mp-767007': <CalcType.GGA_U_Structure_Optimization: 'GGA+U Structure Optimization'>, 'mp-753660': <CalcType.GGA_Structure_Optimization: 'GGA Structure Optimization'>, 'mp-1299558': <CalcType.GGA_U_Static: 'GGA+U Static'>, 'mp-1287515': <CalcType.GGA_U_Static: 'GGA+U Static'>, 'mp-1275626': <CalcType.GGA_U_Static: 'GGA+U Static'>, 'mp-1305635': <CalcType.GGA_U_Static: 'GGA+U Static'>, 'mp-1321355': <CalcType.GGA_U_Structure_Optimization: 'GGA+U Structure Optimization'>, 'mp-1303500': <CalcType.GGA_U_Static: 'GGA+U Static'>, 'mp-1311732': <CalcType.GGA_U_Static: 'GGA+U Static'>, 'mp-1306608': <CalcType.GGA_U_Static: 'GGA+U Static'>, 'mp-1314071': <CalcType.GGA_U_Structure_Optimization: 'GGA+U Structure Optimization'>, 'mp-1306635': <CalcType.GGA_U_Static: 'GGA+U Static'>, 'mp-1322312': <CalcType.GGA_U_Structure_Optimization: 'GGA+U Structure Optimization'>, 'mp-1305177': <CalcType.GGA_U_Static: 'GGA+U Static'>, 'mp-1302957': <CalcType.GGA_U_Structure_Optimization: 'GGA+U Structure Optimization'>, 'mp-1321625': <CalcType.GGA_U_Static: 'GGA+U Static'>, 'mp-1322378': <CalcType.GGA_U_Static: 'GGA+U Static'>, 'mp-1301514': <CalcType.GGA_U_Structure_Optimization: 'GGA+U Structure Optimization'>, 'mp-1301564': <CalcType.GGA_U_Structure_Optimization: 'GGA+U Structure Optimization'>, 'mp-1321729': <CalcType.GGA_U_Structure_Optimization: 'GGA+U Structure Optimization'>, 'mp-1313534': <CalcType.GGA_U_Structure_Optimization: 'GGA+U Structure Optimization'>, 'mp-1308329': <CalcType.GGA_U_Structure_Optimization: 'GGA+U Structure Optimization'>, 'mp-1313034': <CalcType.GGA_U_Structure_Optimization: 'GGA+U Structure Optimization'>, 'mp-1362674': <CalcType.GGA_U_Structure_Optimization: 'GGA+U Structure Optimization'>, 'mp-1386793': <CalcType.GGA_U_Static: 'GGA+U Static'>, 'mp-1539144': <CalcType.GGA_U_DFPT_Dielectric: 'GGA+U DFPT Dielectric'>, 'mp-1543069': <CalcType.GGA_U_Structure_Optimization: 'GGA+U Structure Optimization'>}"
mp-754810,Li2 Mn1 V1 P2 H2 O10,1.0143,"{'mp-849530': <CalcType.GGA_U_Structure_Optimization: 'GGA+U Structure Optimization'>, 'mp-861806': <CalcType.GGA_U_Static: 'GGA+U Static'>, 'mp-862607': <CalcType.GGA_U_NSCF_Line: 'GGA+U NSCF Line'>, 'mp-754810': <CalcType.GGA_Structure_Optimization: 'GGA Structure Optimization'>, 'mp-1296332': <CalcType.GGA_U_Static: 'GGA+U Static'>, 'mp-1316784': <CalcType.GGA_U_Static: 'GGA+U Static'>, 'mp-1310839': <CalcType.GGA_U_Structure_Optimization: 'GGA+U Structure Optimization'>, 'mp-1305674': <CalcType.GGA_U_Static: 'GGA+U Static'>, 'mp-1319889': <CalcType.GGA_U_Structure_Optimization: 'GGA+U Structure Optimization'>, 'mp-1314792': <CalcType.GGA_U_Static: 'GGA+U Static'>, 'mp-1305874': <CalcType.GGA_U_Static: 'GGA+U Static'>, 'mp-1314114': <CalcType.GGA_U_Structure_Optimization: 'GGA+U Structure Optimization'>, 'mp-1307403': <CalcType.GGA_U_Static: 'GGA+U Static'>, 'mp-1307434': <CalcType.GGA_U_Structure_Optimization: 'GGA+U Structure Optimization'>, 'mp-1308925': <CalcType.GGA_U_Structure_Optimization: 'GGA+U Structure Optimization'>, 'mp-1321654': <CalcType.GGA_U_Structure_Optimization: 'GGA+U Structure Optimization'>, 'mp-1317184': <CalcType.GGA_U_Structure_Optimization: 'GGA+U Structure Optimization'>, 'mp-1306031': <CalcType.GGA_U_Structure_Optimization: 'GGA+U Structure Optimization'>, 'mp-1306865': <CalcType.GGA_U_Static: 'GGA+U Static'>, 'mp-1346533': <CalcType.GGA_U_Static: 'GGA+U Static'>, 'mp-1321072': <CalcType.GGA_U_Structure_Optimization: 'GGA+U Structure Optimization'>, 'mp-1322657': <CalcType.GGA_U_Static: 'GGA+U Static'>, 'mp-1307018': <CalcType.GGA_U_Structure_Optimization: 'GGA+U Structure Optimization'>, 'mp-1312994': <CalcType.GGA_U_Structure_Optimization: 'GGA+U Structure Optimization'>, 'mp-1304798': <CalcType.GGA_U_Static: 'GGA+U Static'>, 'mp-1312294': <CalcType.GGA_U_Static: 'GGA+U Static'>, 'mp-1362728': <CalcType.GGA_U_Structure_Optimization: 'GGA+U Structure Optimization'>, 'mp-1362541': <CalcType.GGA_U_Static: 'GGA+U Static'>, 'mp-1362854': <CalcType.GGA_U_Static: 'GGA+U Static'>, 'mp-1786052': <CalcType.GGA_U_Static: 'GGA+U Static'>, 'mp-863588': <CalcType.GGA_U_NSCF_Line: 'GGA+U NSCF Line'>}"
mp-753446,Li4 V2 Cr2 P4 H4 O20,2.2633,"{'mp-767127': <CalcType.GGA_U_Structure_Optimization: 'GGA+U Structure Optimization'>, 'mp-753446': <CalcType.GGA_Structure_Optimization: 'GGA Structure Optimization'>, 'mp-1298556': <CalcType.GGA_U_Structure_Optimization: 'GGA+U Structure Optimization'>, 'mp-1290883': <CalcType.GGA_U_Structure_Optimization: 'GGA+U Structure Optimization'>, 'mp-1293157': <CalcType.GGA_U_Static: 'GGA+U Static'>, 'mp-1275699': <CalcType.GGA_U_Static: 'GGA+U Static'>, 'mp-1275798': <CalcType.GGA_U_Static: 'GGA+U Static'>, 'mp-1301896': <CalcType.GGA_U_Static: 'GGA+U Static'>, 'mp-1320565': <CalcType.GGA_U_Structure_Optimization: 'GGA+U Structure Optimization'>, 'mp-1321324': <CalcType.GGA_U_Static: 'GGA+U Static'>, 'mp-1321380': <CalcType.GGA_U_Static: 'GGA+U Static'>, 'mp-1310953': <CalcType.GGA_U_Structure_Optimization: 'GGA+U Structure Optimization'>, 'mp-1318438': <CalcType.GGA_U_Structure_Optimization: 'GGA+U Structure Optimization'>, 'mp-1301328': <CalcType.GGA_U_Static: 'GGA+U Static'>, 'mp-1302975': <CalcType.GGA_U_Static: 'GGA+U Static'>, 'mp-1322400': <CalcType.GGA_U_Structure_Optimization: 'GGA+U Structure Optimization'>, 'mp-1305364': <CalcType.GGA_U_Structure_Optimization: 'GGA+U Structure Optimization'>, 'mp-1317309': <CalcType.GGA_U_Static: 'GGA+U Static'>, 'mp-1322530': <CalcType.GGA_U_Static: 'GGA+U Static'>, 'mp-1312117': <CalcType.GGA_U_Structure_Optimization: 'GGA+U Structure Optimization'>, 'mp-1313641': <CalcType.GGA_U_Structure_Optimization: 'GGA+U Structure Optimization'>, 'mp-1309924': <CalcType.GGA_U_Static: 'GGA+U Static'>, 'mp-1313709': <CalcType.GGA_U_Structure_Optimization: 'GGA+U Structure Optimization'>, 'mp-1310760': <CalcType.GGA_U_Static: 'GGA+U Static'>, 'mp-1305560': <CalcType.GGA_U_Structure_Optimization: 'GGA+U Structure Optimization'>, 'mp-1362918': <CalcType.GGA_U_Structure_Optimization: 'GGA+U Structure Optimization'>, 'mp-1386271': <CalcType.GGA_U_Static: 'GGA+U Static'>}"
mp-759379,Li2 Mn2 V2 P4 H4 O20,0.9637,"{'mp-765324': <CalcType.GGA_U_Structure_Optimization: 'GGA+U Structure Optimization'>, 'mp-801325': <CalcType.GGA_U_Static: 'GGA+U Static'>, 'mp-808251': <CalcType.GGA_U_NSCF_Line: 'GGA+U NSCF Line'>, 'mp-759379': <CalcType.GGA_Structure_Optimization: 'GGA Structure Optimization'>, 'mp-881572': <CalcType.GGA_Static: 'GGA Static'>, 'mp-1360364': <CalcType.GGA_U_Static: 'GGA+U Static'>, 'mp-1771656': <CalcType.GGA_U_Static: 'GGA+U Static'>, 'mp-1840499': <CalcType.GGA_U_Static: 'GGA+U Static'>, 'mp-808920': <CalcType.GGA_U_NSCF_Line: 'GGA+U NSCF Line'>}"
mp-759948,Li4 V2 Cr2 P4 H4 O20,2.1447,"{'mp-765042': <CalcType.GGA_U_Structure_Optimization: 'GGA+U Structure Optimization'>, 'mp-801168': <CalcType.GGA_U_Static: 'GGA+U Static'>, 'mp-806792': <CalcType.GGA_U_NSCF_Line: 'GGA+U NSCF Line'>, 'mp-759948': <CalcType.GGA_Structure_Optimization: 'GGA Structure Optimization'>, 'mp-881413': <CalcType.GGA_Static: 'GGA Static'>, 'mp-1360028': <CalcType.GGA_U_Static: 'GGA+U Static'>, 'mp-1682050': <CalcType.GGA_U_NSCF_Uniform: 'GGA+U NSCF Uniform'>, 'mp-1836790': <CalcType.GGA_U_Static: 'GGA+U Static'>, 'mp-808154': <CalcType.GGA_U_NSCF_Line: 'GGA+U NSCF Line'>}"
mp-759013,Li2 V2 Cr2 P4 H4 O20,1.2295999999999991,"{'mp-765112': <CalcType.GGA_U_Structure_Optimization: 'GGA+U Structure Optimization'>, 'mp-801220': <CalcType.GGA_U_Static: 'GGA+U Static'>, 'mp-807398': <CalcType.GGA_U_NSCF_Line: 'GGA+U NSCF Line'>, 'mp-759013': <CalcType.GGA_Structure_Optimization: 'GGA Structure Optimization'>, 'mp-881463': <CalcType.GGA_Static: 'GGA Static'>, 'mp-1345670': <CalcType.GGA_U_Static: 'GGA+U Static'>, 'mp-1841311': <CalcType.GGA_U_Static: 'GGA+U Static'>, 'mp-808185': <CalcType.GGA_U_NSCF_Line: 'GGA+U NSCF Line'>}"
mp-759884,Li2 Mn2 V2 P4 H4 O20,0.9164999999999991,"{'mp-765151': <CalcType.GGA_U_Structure_Optimization: 'GGA+U Structure Optimization'>, 'mp-801218': <CalcType.GGA_U_Static: 'GGA+U Static'>, 'mp-806899': <CalcType.GGA_U_NSCF_Line: 'GGA+U NSCF Line'>, 'mp-759884': <CalcType.GGA_Structure_Optimization: 'GGA Structure Optimization'>, 'mp-881443': <CalcType.GGA_Static: 'GGA Static'>, 'mp-1361187': <CalcType.GGA_U_Static: 'GGA+U Static'>, 'mp-1837653': <CalcType.GGA_U_Static: 'GGA+U Static'>, 'mp-808172': <CalcType.GGA_U_NSCF_Line: 'GGA+U NSCF Line'>}"
mp-759005,Li6 V3 Cr3 P6 H6 O30,0.0,"{'mp-765060': <CalcType.GGA_U_Structure_Optimization: 'GGA+U Structure Optimization'>, 'mp-759005': <CalcType.GGA_Structure_Optimization: 'GGA Structure Optimization'>, 'mp-881403': <CalcType.GGA_Static: 'GGA Static'>, 'mp-1351953': <CalcType.GGA_U_Static: 'GGA+U Static'>}"
mp-759828,Li2 Mn2 V2 P4 H4 O20,0.908799999999999,"{'mp-806788': <CalcType.GGA_U_NSCF_Line: 'GGA+U NSCF Line'>, 'mp-765066': <CalcType.GGA_U_Structure_Optimization: 'GGA+U Structure Optimization'>, 'mp-801197': <CalcType.GGA_U_Static: 'GGA+U Static'>, 'mp-759828': <CalcType.GGA_Structure_Optimization: 'GGA Structure Optimization'>, 'mp-881426': <CalcType.GGA_Static: 'GGA Static'>, 'mp-1372320': <CalcType.GGA_U_Static: 'GGA+U Static'>, 'mp-1839762': <CalcType.GGA_U_Static: 'GGA+U Static'>, 'mp-808151': <CalcType.GGA_U_NSCF_Line: 'GGA+U NSCF Line'>}"
mp-759502,Li2 V2 Cr2 P4 H4 O20,1.3459,"{'mp-765067': <CalcType.GGA_U_Structure_Optimization: 'GGA+U Structure Optimization'>, 'mp-801200': <CalcType.GGA_U_Static: 'GGA+U Static'>, 'mp-806787': <CalcType.GGA_U_NSCF_Line: 'GGA+U NSCF Line'>, 'mp-759502': <CalcType.GGA_Structure_Optimization: 'GGA Structure Optimization'>, 'mp-881427': <CalcType.GGA_Static: 'GGA Static'>, 'mp-1340776': <CalcType.GGA_U_Static: 'GGA+U Static'>, 'mp-1843274': <CalcType.GGA_U_Static: 'GGA+U Static'>, 'mp-808150': <CalcType.GGA_U_NSCF_Line: 'GGA+U NSCF Line'>}"
mp-758399,Li6 V3 Cr3 P6 H6 O30,1.9543,"{'mp-763880': <CalcType.GGA_U_Structure_Optimization: 'GGA+U Structure Optimization'>, 'mp-804262': <CalcType.GGA_U_Static: 'GGA+U Static'>, 'mp-806430': <CalcType.GGA_U_NSCF_Line: 'GGA+U NSCF Line'>, 'mp-758399': <CalcType.GGA_Structure_Optimization: 'GGA Structure Optimization'>, 'mp-1353566': <CalcType.GGA_U_Static: 'GGA+U Static'>, 'mp-1883371': <CalcType.GGA_U_Static: 'GGA+U Static'>, 'mp-808055': <CalcType.GGA_U_NSCF_Line: 'GGA+U NSCF Line'>}"
mp-759864,Li2 V2 Cr2 P4 H4 O20,1.4417,"{'mp-765078': <CalcType.GGA_U_Structure_Optimization: 'GGA+U Structure Optimization'>, 'mp-801223': <CalcType.GGA_U_Static: 'GGA+U Static'>, 'mp-806903': <CalcType.GGA_U_NSCF_Line: 'GGA+U NSCF Line'>, 'mp-759864': <CalcType.GGA_Structure_Optimization: 'GGA Structure Optimization'>, 'mp-881444': <CalcType.GGA_Static: 'GGA Static'>, 'mp-1344983': <CalcType.GGA_U_Static: 'GGA+U Static'>, 'mp-1836986': <CalcType.GGA_U_Static: 'GGA+U Static'>, 'mp-808176': <CalcType.GGA_U_NSCF_Line: 'GGA+U NSCF Line'>}"
mp-760043,Li2 V2 Fe2 P4 H4 O20,1.589999999999999,"{'mp-765318': <CalcType.GGA_U_Structure_Optimization: 'GGA+U Structure Optimization'>, 'mp-801335': <CalcType.GGA_U_Static: 'GGA+U Static'>, 'mp-808260': <CalcType.GGA_U_NSCF_Line: 'GGA+U NSCF Line'>, 'mp-760043': <CalcType.GGA_Structure_Optimization: 'GGA Structure Optimization'>, 'mp-881602': <CalcType.GGA_Static: 'GGA Static'>, 'mp-1358480': <CalcType.GGA_U_Static: 'GGA+U Static'>, 'mp-1771816': <CalcType.GGA_U_Static: 'GGA+U Static'>, 'mp-1842038': <CalcType.GGA_U_Static: 'GGA+U Static'>, 'mp-808935': <CalcType.GGA_U_NSCF_Line: 'GGA+U NSCF Line'>}"
mp-760163,Li2 V2 Fe2 P4 H4 O20,1.581699999999999,"{'mp-806904': <CalcType.GGA_U_NSCF_Line: 'GGA+U NSCF Line'>, 'mp-801225': <CalcType.GGA_U_Static: 'GGA+U Static'>, 'mp-765111': <CalcType.GGA_U_Structure_Optimization: 'GGA+U Structure Optimization'>, 'mp-760163': <CalcType.GGA_Structure_Optimization: 'GGA Structure Optimization'>, 'mp-881452': <CalcType.GGA_Static: 'GGA Static'>, 'mp-1333082': <CalcType.GGA_U_Static: 'GGA+U Static'>, 'mp-1771744': <CalcType.GGA_U_Static: 'GGA+U Static'>, 'mp-1841665': <CalcType.GGA_U_Static: 'GGA+U Static'>, 'mp-808177': <CalcType.GGA_U_NSCF_Line: 'GGA+U NSCF Line'>}"