Material ID,Composition,Band Gap,Calc Types
mp-720721,Si4 H72 C16 N32 O16 F24,5.5638000000000005,"{'mp-720721': <CalcType.GGA_Structure_Optimization: 'GGA Structure Optimization'>, 'mp-737983': <CalcType.GGA_NSCF_Line: 'GGA NSCF Line'>, 'mp-733681': <CalcType.GGA_Static: 'GGA Static'>, 'mp-1365644': <CalcType.GGA_Static: 'GGA Static'>, 'mp-745721': <CalcType.GGA_NSCF_Line: 'GGA NSCF Line'>}"
mp-1228462,Ba3 Sr1 Co2 Cu4 S4 O4,0.0,"{'mp-1228462': <CalcType.GGA_U_Structure_Optimization: 'GGA+U Structure Optimization'>, 'mp-1809378': <CalcType.GGA_U_Static: 'GGA+U Static'>}"
mp-1227981,Ba1 Sr3 Co2 Cu4 S4 O4,0.0,"{'mp-1227981': <CalcType.GGA_U_Structure_Optimization: 'GGA+U Structure Optimization'>, 'mp-1813326': <CalcType.GGA_U_Static: 'GGA+U Static'>}"
mp-1199154,P2 H24 C6 N12 O10 F2,4.6516,"{'mp-1199154': <CalcType.GGA_Structure_Optimization: 'GGA Structure Optimization'>, 'mp-1893821': <CalcType.GGA_Static: 'GGA Static'>, 'mp-1982301': <CalcType.GGA_Static: 'GGA Static'>}"
mp-707276,Te2 H18 S2 N4 O10 F6,4.2669999999999995,"{'mp-707276': <CalcType.GGA_Structure_Optimization: 'GGA Structure Optimization'>, 'mp-728034': <CalcType.GGA_Static: 'GGA Static'>, 'mp-732771': <CalcType.GGA_NSCF_Line: 'GGA NSCF Line'>, 'mp-1397542': <CalcType.GGA_Static: 'GGA Static'>, 'mp-737239': <CalcType.GGA_NSCF_Line: 'GGA NSCF Line'>, 'mp-1730346': <CalcType.GGA_NSCF_Uniform: 'GGA NSCF Uniform'>, 'mp-1820811': <CalcType.GGA_Static: 'GGA Static'>}"
mp-1173102,Ti4 H4 C2 Se8 Cl32 O10,0.0058000000000000005,"{'mp-1173102': <CalcType.GGA_Structure_Optimization: 'GGA Structure Optimization'>, 'mp-1335483': <CalcType.GGA_Static: 'GGA Static'>}"
mp-1200489,Ti4 H4 C2 Se8 Cl32 O10,2.4765,"{'mp-1200489': <CalcType.GGA_Structure_Optimization: 'GGA Structure Optimization'>, 'mp-1329702': <CalcType.GGA_Static: 'GGA Static'>}"
mp-693432,Ti4 H4 C2 Se8 Cl32 O10,0.0,"{'mp-693432': <CalcType.GGA_Structure_Optimization: 'GGA Structure Optimization'>, 'mp-1364960': <CalcType.GGA_Static: 'GGA Static'>}"
mp-1200711,Sb8 H32 C12 S4 Cl24 O20,2.5541,"{'mp-1200711': <CalcType.GGA_Structure_Optimization: 'GGA Structure Optimization'>, 'mp-1334808': <CalcType.GGA_Static: 'GGA Static'>, 'mp-1628687': <CalcType.GGA_NSCF_Line: 'GGA NSCF Line'>}"
mp-1203028,Ga4 As4 H20 C4 N4 O20,0.23170000000000002,"{'mp-1203028': <CalcType.GGA_Structure_Optimization: 'GGA Structure Optimization'>, 'mp-1871186': <CalcType.GGA_Static: 'GGA Static'>, 'mp-1983526': <CalcType.GGA_Static: 'GGA Static'>}"
mp-1203520,Fe4 H48 C20 N4 Cl8 O20,1.783399999999999,"{'mp-1203520': <CalcType.GGA_U_Structure_Optimization: 'GGA+U Structure Optimization'>, 'mp-1365570': <CalcType.GGA_U_Static: 'GGA+U Static'>}"
mp-1204839,H24 C12 S12 N4 Cl12 O20,4.0119,"{'mp-1204839': <CalcType.GGA_Structure_Optimization: 'GGA Structure Optimization'>, 'mp-1331841': <CalcType.GGA_Static: 'GGA Static'>}"
mp-559834,Ag4 B4 Te16 C4 O20 F80,2.5739,"{'mp-1336233': <CalcType.GGA_Static: 'GGA Static'>, 'mp-732380': <CalcType.GGA_Static: 'GGA Static'>, 'mp-846514': <CalcType.GGA_NSCF_Line: 'GGA NSCF Line'>, 'mp-559834': <CalcType.GGA_Structure_Optimization: 'GGA Structure Optimization'>, 'mp-750529': <CalcType.GGA_NSCF_Line: 'GGA NSCF Line'>}"
mp-696078,K12 Zr4 H8 S4 O20 F20,5.0454,"{'mp-725696': <CalcType.GGA_Static: 'GGA Static'>, 'mp-696078': <CalcType.GGA_Structure_Optimization: 'GGA Structure Optimization'>, 'mp-860074': <CalcType.GGA_NSCF_Line: 'GGA NSCF Line'>, 'mp-1351837': <CalcType.GGA_Static: 'GGA Static'>, 'mp-746805': <CalcType.GGA_NSCF_Line: 'GGA NSCF Line'>, 'mp-1685737': <CalcType.GGA_NSCF_Uniform: 'GGA NSCF Uniform'>, 'mp-1851002': <CalcType.GGA_Static: 'GGA Static'>}"
mp-696485,Na8 Te4 H4 S4 O20 F12,3.4852,"{'mp-860177': <CalcType.GGA_NSCF_Line: 'GGA NSCF Line'>, 'mp-727251': <CalcType.GGA_Static: 'GGA Static'>, 'mp-696485': <CalcType.GGA_Structure_Optimization: 'GGA Structure Optimization'>, 'mp-1341191': <CalcType.GGA_Static: 'GGA Static'>, 'mp-748023': <CalcType.GGA_NSCF_Line: 'GGA NSCF Line'>, 'mp-1885258': <CalcType.GGA_Static: 'GGA Static'>}"
mp-699466,Zn4 P4 H28 C8 N16 O20,4.0413,"{'mp-860558': <CalcType.GGA_NSCF_Line: 'GGA NSCF Line'>, 'mp-726701': <CalcType.GGA_Static: 'GGA Static'>, 'mp-699466': <CalcType.GGA_Structure_Optimization: 'GGA Structure Optimization'>, 'mp-1350844': <CalcType.GGA_Static: 'GGA Static'>, 'mp-747743': <CalcType.GGA_NSCF_Line: 'GGA NSCF Line'>, 'mp-1679418': <CalcType.GGA_NSCF_Uniform: 'GGA NSCF Uniform'>, 'mp-1889585': <CalcType.GGA_Static: 'GGA Static'>}"
mp-1197676,Na4 H24 C16 S4 N12 O20,2.3638,"{'mp-1197676': <CalcType.GGA_Structure_Optimization: 'GGA Structure Optimization'>, 'mp-1365262': <CalcType.GGA_Static: 'GGA Static'>, 'mp-1850657': <CalcType.GGA_Static: 'GGA Static'>}"
mp-1198497,Na8 H64 C16 S16 N8 O40,5.4515,"{'mp-1198497': <CalcType.GGA_Structure_Optimization: 'GGA Structure Optimization'>, 'mp-1338724': <CalcType.GGA_Static: 'GGA Static'>}"
mp-24145,Cu2 P4 H16 C2 N4 O10,0.0,"{'mp-988738': <CalcType.GGA_Static: 'GGA Static'>, 'mp-989000': <CalcType.GGA_NSCF_Line: 'GGA NSCF Line'>, 'mp-24145': <CalcType.GGA_Structure_Optimization: 'GGA Structure Optimization'>, 'mp-1237981': <CalcType.GGA_Structure_Optimization: 'GGA Structure Optimization'>, 'mp-1384661': <CalcType.GGA_Static: 'GGA Static'>, 'mp-1733839': <CalcType.GGA_NSCF_Uniform: 'GGA NSCF Uniform'>, 'mp-1841316': <CalcType.GGA_Static: 'GGA Static'>, 'mp-989166': <CalcType.GGA_NSCF_Line: 'GGA NSCF Line'>, 'mp-1623117': <CalcType.GGA_NSCF_Line: 'GGA NSCF Line'>, 'mp-2110446': <CalcType.GGA_NSCF_Line: 'GGA NSCF Line'>, 'mp-2306983': <CalcType.GGA_NSCF_Line: 'GGA NSCF Line'>}"
mp-729824,Mn6 Mo4 H68 C44 N32 O10,0.017400000000000002,"{'mp-744919': <CalcType.GGA_U_Structure_Optimization: 'GGA+U Structure Optimization'>, 'mp-729824': <CalcType.GGA_Static: 'GGA Static'>, 'mp-833816': <CalcType.GGA_Static: 'GGA Static'>}"
mp-603406,Co4 H84 C8 N24 Cl8 O20,0.672,"{'mp-818983': <CalcType.GGA_U_Static: 'GGA+U Static'>, 'mp-820013': <CalcType.GGA_U_NSCF_Line: 'GGA+U NSCF Line'>, 'mp-603423': <CalcType.GGA_U_Structure_Optimization: 'GGA+U Structure Optimization'>, 'mp-835075': <CalcType.GGA_NSCF_Line: 'GGA NSCF Line'>, 'mp-825513': <CalcType.GGA_Static: 'GGA Static'>, 'mp-603406': <CalcType.GGA_Structure_Optimization: 'GGA Structure Optimization'>, 'mp-1337681': <CalcType.GGA_U_Static: 'GGA+U Static'>, 'mp-835944': <CalcType.GGA_NSCF_Line: 'GGA NSCF Line'>}"
mp-1196643,Li8 C16 S16 N8 O40 F48,0.0015999999999990002,"{'mp-1196643': <CalcType.GGA_Structure_Optimization: 'GGA Structure Optimization'>, 'mp-1332377': <CalcType.GGA_Static: 'GGA Static'>}"
mp-1197579,Cr2 H2 C14 N2 O10 F4,3.566,"{'mp-1197579': <CalcType.GGA_U_Structure_Optimization: 'GGA+U Structure Optimization'>, 'mp-1401586': <CalcType.GGA_U_Static: 'GGA+U Static'>, 'mp-1741252': <CalcType.GGA_U_NSCF_Uniform: 'GGA+U NSCF Uniform'>, 'mp-1891959': <CalcType.GGA_U_Static: 'GGA+U Static'>}"
mp-1199360,Sn2 H14 C6 N2 O10 F2,3.0788,"{'mp-1199360': <CalcType.GGA_Structure_Optimization: 'GGA Structure Optimization'>, 'mp-1239070': <CalcType.GGA_Structure_Optimization: 'GGA Structure Optimization'>, 'mp-1403898': <CalcType.GGA_Static: 'GGA Static'>, 'mp-1735060': <CalcType.GGA_NSCF_Uniform: 'GGA NSCF Uniform'>, 'mp-1836461': <CalcType.GGA_Static: 'GGA Static'>, 'mp-1623386': <CalcType.GGA_NSCF_Line: 'GGA NSCF Line'>, 'mp-2108888': <CalcType.GGA_NSCF_Line: 'GGA NSCF Line'>, 'mp-2307792': <CalcType.GGA_NSCF_Line: 'GGA NSCF Line'>}"
mp-1200727,H38 Pb2 C30 S4 N6 O10,2.1135,"{'mp-1200727': <CalcType.GGA_Structure_Optimization: 'GGA Structure Optimization'>, 'mp-1846370': <CalcType.GGA_Static: 'GGA Static'>, 'mp-1987327': <CalcType.GGA_Static: 'GGA Static'>}"
mp-1202239,Ba2 H12 C4 S2 N2 O10,3.5841000000000003,"{'mp-1202239': <CalcType.GGA_Structure_Optimization: 'GGA Structure Optimization'>, 'mp-1396596': <CalcType.GGA_Static: 'GGA Static'>, 'mp-1734113': <CalcType.GGA_NSCF_Uniform: 'GGA NSCF Uniform'>, 'mp-1817525': <CalcType.GGA_Static: 'GGA Static'>, 'mp-1621968': <CalcType.GGA_NSCF_Line: 'GGA NSCF Line'>, 'mp-2112738': <CalcType.GGA_NSCF_Line: 'GGA NSCF Line'>, 'mp-2303405': <CalcType.GGA_NSCF_Line: 'GGA NSCF Line'>}"
mp-774726,Cu4 H52 C12 S14 N24 O10,2.516199999999999,"{'mp-774726': <CalcType.GGA_Structure_Optimization: 'GGA Structure Optimization'>, 'mp-862127': <CalcType.GGA_NSCF_Line: 'GGA NSCF Line'>, 'mp-853906': <CalcType.GGA_Static: 'GGA Static'>, 'mp-1335586': <CalcType.GGA_Static: 'GGA Static'>, 'mp-1844754': <CalcType.GGA_Static: 'GGA Static'>, 'mp-863156': <CalcType.GGA_NSCF_Line: 'GGA NSCF Line'>, 'mp-1628499': <CalcType.GGA_NSCF_Line: 'GGA NSCF Line'>}"
mp-2226976,Ba1 Y1 Mg1 Cu1 Ni1 O5,0.0,{'mp-2226976': <CalcType.GGA_U_Structure_Optimization: 'GGA+U Structure Optimization'>}
mp-2228249,Ba1 Y1 Mg1 Co1 Cu1 O5,0.0,{'mp-2228249': <CalcType.GGA_U_Structure_Optimization: 'GGA+U Structure Optimization'>}
mp-2224210,Ba1 Y1 Mg1 Cu1 Ni1 O5,0.0,{'mp-2224210': <CalcType.GGA_U_Structure_Optimization: 'GGA+U Structure Optimization'>}
mp-2242117,Ba1 Y1 Mg1 Cr1 Cu1 O5,0.0,{'mp-2242117': <CalcType.GGA_U_Structure_Optimization: 'GGA+U Structure Optimization'>}
mp-2222935,Ba1 Y1 Mg1 Cu1 Ag1 O5,0.0,{'mp-2222935': <CalcType.GGA_Structure_Optimization: 'GGA Structure Optimization'>}
mp-2240386,Ba1 Y1 Mg1 Mn1 Cu1 O5,0.021300000000000003,{'mp-2240386': <CalcType.GGA_U_Structure_Optimization: 'GGA+U Structure Optimization'>}
mp-2240651,Ba1 Y1 Mg1 Fe1 Cu1 O5,0.0,{'mp-2240651': <CalcType.GGA_U_Structure_Optimization: 'GGA+U Structure Optimization'>}
mp-600211,Mo8 H104 C32 N8 O20 F24,3.8239,"{'mp-818749': <CalcType.GGA_U_Static: 'GGA+U Static'>, 'mp-600515': <CalcType.GGA_U_Structure_Optimization: 'GGA+U Structure Optimization'>, 'mp-655075': <CalcType.GGA_Static: 'GGA Static'>, 'mp-600211': <CalcType.GGA_Structure_Optimization: 'GGA Structure Optimization'>}"
mp-707845,K12 Zr4 H4 S4 O20 F20,0.9258000000000001,"{'mp-707845': <CalcType.GGA_Structure_Optimization: 'GGA Structure Optimization'>, 'mp-728289': <CalcType.GGA_Static: 'GGA Static'>, 'mp-864210': <CalcType.GGA_NSCF_Line: 'GGA NSCF Line'>, 'mp-1181102': <CalcType.GGA_Structure_Optimization: 'GGA Structure Optimization'>, 'mp-1333903': <CalcType.GGA_Static: 'GGA Static'>, 'mp-1847798': <CalcType.GGA_Static: 'GGA Static'>}"
mp-555612,Sb8 Ir2 C10 Cl2 O10 F44,2.9341,"{'mp-742063': <CalcType.GGA_Static: 'GGA Static'>, 'mp-847883': <CalcType.GGA_NSCF_Line: 'GGA NSCF Line'>, 'mp-555612': <CalcType.GGA_Structure_Optimization: 'GGA Structure Optimization'>, 'mp-1328455': <CalcType.GGA_Static: 'GGA Static'>, 'mp-750665': <CalcType.GGA_NSCF_Line: 'GGA NSCF Line'>}"
mp-605006,Li8 H64 C16 S16 N8 O40,5.8048,"{'mp-658949': <CalcType.GGA_Static: 'GGA Static'>, 'mp-605006': <CalcType.GGA_Structure_Optimization: 'GGA Structure Optimization'>, 'mp-684380': <CalcType.GGA_NSCF_Line: 'GGA NSCF Line'>, 'mp-1335439': <CalcType.GGA_Static: 'GGA Static'>, 'mp-705131': <CalcType.GGA_NSCF_Line: 'GGA NSCF Line'>}"
mp-2240586,Ba1 Y1 Mg1 Mn1 Cu1 O5,0.0,{'mp-2240586': <CalcType.GGA_U_Structure_Optimization: 'GGA+U Structure Optimization'>}
mp-2242141,Ba1 Y1 Mg1 Cr1 Cu1 O5,0.0,{'mp-2242141': <CalcType.GGA_U_Structure_Optimization: 'GGA+U Structure Optimization'>}
mp-2240418,Ba1 Y1 Mg1 Ti1 Cu1 O5,0.0,{'mp-2240418': <CalcType.GGA_Structure_Optimization: 'GGA Structure Optimization'>}
mp-1203696,Na12 Cu4 P4 H4 Cl4 O20,0.31259999999999905,"{'mp-1203696': <CalcType.GGA_Structure_Optimization: 'GGA Structure Optimization'>, 'mp-1862418': <CalcType.GGA_Static: 'GGA Static'>, 'mp-1983615': <CalcType.GGA_Static: 'GGA Static'>}"
mp-616160,Mn4 C24 S8 N4 O20 F24,3.0643,"{'mp-819582': <CalcType.GGA_U_NSCF_Line: 'GGA+U NSCF Line'>, 'mp-795942': <CalcType.GGA_U_Static: 'GGA+U Static'>, 'mp-616425': <CalcType.GGA_U_Structure_Optimization: 'GGA+U Structure Optimization'>, 'mp-616160': <CalcType.GGA_Structure_Optimization: 'GGA Structure Optimization'>, 'mp-835338': <CalcType.GGA_Static: 'GGA Static'>, 'mp-1364804': <CalcType.GGA_U_Static: 'GGA+U Static'>, 'mp-1850580': <CalcType.GGA_U_Static: 'GGA+U Static'>, 'mp-820613': <CalcType.GGA_U_NSCF_Line: 'GGA+U NSCF Line'>}"
mp-1217613,Ti4 H2 C2 Se8 Cl32 O10,0.3528,"{'mp-1217613': <CalcType.GGA_Structure_Optimization: 'GGA Structure Optimization'>, 'mp-1333362': <CalcType.GGA_Static: 'GGA Static'>}"
mp-2227600,Sr3 Mg1 Fe2 Cu2 Se2 O5,0.21429999999999902,{'mp-2227600': <CalcType.GGA_U_Structure_Optimization: 'GGA+U Structure Optimization'>}
mp-2222927,Ba1 Y1 Mg1 Fe1 Cu1 O5,0.7742999999999991,{'mp-2222927': <CalcType.GGA_U_Structure_Optimization: 'GGA+U Structure Optimization'>}
mp-1204843,Rb4 C8 S8 N4 O20 F24,0.5519000000000001,"{'mp-1204843': <CalcType.GGA_Structure_Optimization: 'GGA Structure Optimization'>, 'mp-1238190': <CalcType.GGA_Structure_Optimization: 'GGA Structure Optimization'>, 'mp-1349097': <CalcType.GGA_Static: 'GGA Static'>, 'mp-1678678': <CalcType.GGA_NSCF_Uniform: 'GGA NSCF Uniform'>, 'mp-1845256': <CalcType.GGA_Static: 'GGA Static'>}"
mp-2222919,Ba1 Y1 Mg1 Fe1 Cu1 O5,0.0,"{'mp-2222919': <CalcType.GGA_U_Structure_Optimization: 'GGA+U Structure Optimization'>, 'mp-2240519': <CalcType.GGA_U_Static: 'GGA+U Static'>}"
mp-1228046,Ba1 Fe1 Cu1 Pb2 Cl1 O5,0.0,"{'mp-1228046': <CalcType.GGA_U_Structure_Optimization: 'GGA+U Structure Optimization'>, 'mp-1400726': <CalcType.GGA_U_Static: 'GGA+U Static'>, 'mp-1732571': <CalcType.GGA_U_NSCF_Uniform: 'GGA+U NSCF Uniform'>, 'mp-1774330': <CalcType.GGA_U_Static: 'GGA+U Static'>, 'mp-1789699': <CalcType.GGA_U_Static: 'GGA+U Static'>}"
mp-2222848,Ba1 Y1 Mg1 Co1 Cu1 O5,0.0,"{'mp-2222848': <CalcType.GGA_U_Structure_Optimization: 'GGA+U Structure Optimization'>, 'mp-2240455': <CalcType.GGA_U_Static: 'GGA+U Static'>}"
mp-2223891,Ba1 Y1 Mg1 Mn1 Cu1 O5,0.0,"{'mp-2223891': <CalcType.GGA_U_Static: 'GGA+U Static'>, 'mp-2240120': <CalcType.GGA_U_Structure_Optimization: 'GGA+U Structure Optimization'>}"
mp-2242083,Ba1 Y1 Mg1 Cu1 Bi1 O5,0.0,{'mp-2242083': <CalcType.GGA_Structure_Optimization: 'GGA Structure Optimization'>}
mp-2217420,Ba1 Y1 Mg1 Cr1 Cu1 O5,0.0,"{'mp-2217420': <CalcType.GGA_U_Static: 'GGA+U Static'>, 'mp-2217534': <CalcType.GGA_U_Structure_Optimization: 'GGA+U Structure Optimization'>}"
mp-2239848,Ba1 Y1 Mg1 Ti1 Cu1 O5,0.0,"{'mp-2239848': <CalcType.GGA_Static: 'GGA Static'>, 'mp-2240553': <CalcType.GGA_Structure_Optimization: 'GGA Structure Optimization'>}"
mp-2222863,Ba1 Y1 Mg1 Cu1 Ag1 O5,0.0,"{'mp-2223327': <CalcType.GGA_Static: 'GGA Static'>, 'mp-2222863': <CalcType.GGA_Structure_Optimization: 'GGA Structure Optimization'>}"
mp-2240198,Ba1 Y1 Mg1 Co1 Cu1 O5,0.0,{'mp-2240198': <CalcType.GGA_U_Structure_Optimization: 'GGA+U Structure Optimization'>}
mp-1233767,Ba6 Mg1 Sc2 C2 O6 F14,1.0364,{'mp-1233767': <CalcType.GGA_Structure_Optimization: 'GGA Structure Optimization'>}
mp-2217872,Ba1 La1 Mg1 Ni1 Ru1 O6,0.009500000000000001,{'mp-2217872': <CalcType.GGA_U_Structure_Optimization: 'GGA+U Structure Optimization'>}
mp-2217312,Sr1 La1 Mg1 Mn1 Ru1 O6,0.0,{'mp-2217312': <CalcType.GGA_U_Structure_Optimization: 'GGA+U Structure Optimization'>}
mp-2226529,Ba1 La1 Mg1 Zn1 Ru1 O6,0.055299999999999,{'mp-2226529': <CalcType.GGA_Structure_Optimization: 'GGA Structure Optimization'>}
mp-2230239,Rb2 Mg1 Ni2 W2 O6 F6,2.1395,{'mp-2230239': <CalcType.GGA_U_Structure_Optimization: 'GGA+U Structure Optimization'>}
mp-720215,K7 H12 Pt4 C16 N16 O6,0.0,"{'mp-734057': <CalcType.GGA_Static: 'GGA Static'>, 'mp-720215': <CalcType.GGA_Structure_Optimization: 'GGA Structure Optimization'>, 'mp-738154': <CalcType.GGA_NSCF_Line: 'GGA NSCF Line'>, 'mp-1364705': <CalcType.GGA_Static: 'GGA Static'>, 'mp-745438': <CalcType.GGA_NSCF_Line: 'GGA NSCF Line'>, 'mp-1894767': <CalcType.GGA_Static: 'GGA Static'>}"
mp-1193859,Na2 Fe2 H8 S2 O12 F2,2.131199999999999,"{'mp-1193859': <CalcType.GGA_U_Structure_Optimization: 'GGA+U Structure Optimization'>, 'mp-1238629': <CalcType.GGA_U_Structure_Optimization: 'GGA+U Structure Optimization'>, 'mp-1287496': <CalcType.GGA_U_Structure_Optimization: 'GGA+U Structure Optimization'>, 'mp-1275593': <CalcType.GGA_U_Structure_Optimization: 'GGA+U Structure Optimization'>, 'mp-1306336': <CalcType.GGA_U_Structure_Optimization: 'GGA+U Structure Optimization'>, 'mp-1315396': <CalcType.GGA_U_Static: 'GGA+U Static'>, 'mp-1303520': <CalcType.GGA_U_Static: 'GGA+U Static'>, 'mp-1319257': <CalcType.GGA_U_Structure_Optimization: 'GGA+U Structure Optimization'>, 'mp-1320069': <CalcType.GGA_U_Static: 'GGA+U Static'>, 'mp-1314929': <CalcType.GGA_U_Structure_Optimization: 'GGA+U Structure Optimization'>, 'mp-1309733': <CalcType.GGA_U_Structure_Optimization: 'GGA+U Structure Optimization'>, 'mp-1316542': <CalcType.GGA_U_Structure_Optimization: 'GGA+U Structure Optimization'>, 'mp-1312818': <CalcType.GGA_U_Static: 'GGA+U Static'>, 'mp-1312889': <CalcType.GGA_U_Static: 'GGA+U Static'>, 'mp-1310655': <CalcType.GGA_U_Static: 'GGA+U Static'>, 'mp-1315178': <CalcType.GGA_U_Static: 'GGA+U Static'>, 'mp-1382116': <CalcType.GGA_U_Static: 'GGA+U Static'>, 'mp-1675176': <CalcType.GGA_U_NSCF_Uniform: 'GGA+U NSCF Uniform'>, 'mp-1809933': <CalcType.GGA_U_Static: 'GGA+U Static'>, 'mp-1637751': <CalcType.GGA_U_NSCF_Line: 'GGA+U NSCF Line'>, 'mp-2175020': <CalcType.GGA_U_NSCF_Line: 'GGA+U NSCF Line'>, 'mp-2438022': <CalcType.GGA_U_NSCF_Line: 'GGA+U NSCF Line'>}"
mp-1193789,Na2 Co2 H8 S2 O12 F2,3.0039,"{'mp-1193789': <CalcType.GGA_U_Structure_Optimization: 'GGA+U Structure Optimization'>, 'mp-1921842': <CalcType.GGA_U_Static: 'GGA+U Static'>, 'mp-1987361': <CalcType.GGA_U_Static: 'GGA+U Static'>}"
mp-1307582,Na4 Fe4 H16 S4 O24 F4,3.639699999999999,"{'mp-1307582': <CalcType.GGA_U_Static: 'GGA+U Static'>, 'mp-1310582': <CalcType.GGA_U_Structure_Optimization: 'GGA+U Structure Optimization'>, 'mp-1877301': <CalcType.GGA_U_Static: 'GGA+U Static'>}"
mp-1194067,Na2 Ni2 H8 S2 O12 F2,4.6315,"{'mp-1194067': <CalcType.GGA_U_Structure_Optimization: 'GGA+U Structure Optimization'>, 'mp-1863359': <CalcType.GGA_U_Static: 'GGA+U Static'>, 'mp-1981499': <CalcType.GGA_U_Static: 'GGA+U Static'>}"
mp-766031,Na2 Mg2 H8 S2 O12 F2,5.0378,"{'mp-852471': <CalcType.GGA_Static: 'GGA Static'>, 'mp-855298': <CalcType.GGA_NSCF_Line: 'GGA NSCF Line'>, 'mp-766031': <CalcType.GGA_Structure_Optimization: 'GGA Structure Optimization'>, 'mp-1504484': <CalcType.GGA_Static: 'GGA Static'>, 'mp-1674860': <CalcType.GGA_NSCF_Uniform: 'GGA NSCF Uniform'>, 'mp-1922514': <CalcType.GGA_Static: 'GGA Static'>, 'mp-855851': <CalcType.GGA_NSCF_Line: 'GGA NSCF Line'>}"
mp-2241238,Sr4 Mg1 V2 Fe2 As2 O6,0.0,"{'mp-2241531': <CalcType.GGA_U_Structure_Optimization: 'GGA+U Structure Optimization'>, 'mp-2241238': <CalcType.GGA_U_Static: 'GGA+U Static'>}"
mp-2229175,Sr4 Mg1 Mn2 Cu2 S2 O6,0.0,"{'mp-2229582': <CalcType.GGA_U_Static: 'GGA+U Static'>, 'mp-2229175': <CalcType.GGA_U_Structure_Optimization: 'GGA+U Structure Optimization'>}"
mp-2229265,Sr4 Mg1 Fe2 Cu2 S2 O6,0.6109,"{'mp-2229483': <CalcType.GGA_U_Static: 'GGA+U Static'>, 'mp-2229265': <CalcType.GGA_U_Structure_Optimization: 'GGA+U Structure Optimization'>}"
mp-1235003,Ba6 Mg1 Sc2 C2 O6 F14,0.0,{'mp-1235003': <CalcType.GGA_Structure_Optimization: 'GGA Structure Optimization'>}
mp-696994,Zr4 H32 S2 N6 O12 F18,4.078699999999999,"{'mp-740374': <CalcType.GGA_NSCF_Line: 'GGA NSCF Line'>, 'mp-696994': <CalcType.GGA_Structure_Optimization: 'GGA Structure Optimization'>, 'mp-726793': <CalcType.GGA_Static: 'GGA Static'>, 'mp-1358366': <CalcType.GGA_Static: 'GGA Static'>, 'mp-1887680': <CalcType.GGA_Static: 'GGA Static'>, 'mp-748354': <CalcType.GGA_NSCF_Line: 'GGA NSCF Line'>}"