Material ID,Composition,Band Gap,Calc Types
mp-746324,V4 As6 H34 C8 N16 O34,2.2982,"{'mp-746324': <CalcType.GGA_U_Structure_Optimization: 'GGA+U Structure Optimization'>, 'mp-824926': <CalcType.GGA_U_NSCF_Line: 'GGA+U NSCF Line'>, 'mp-818719': <CalcType.GGA_U_Static: 'GGA+U Static'>, 'mp-834392': <CalcType.GGA_Static: 'GGA Static'>, 'mp-841138': <CalcType.GGA_NSCF_Line: 'GGA NSCF Line'>, 'mp-1363176': <CalcType.GGA_U_Static: 'GGA+U Static'>, 'mp-1848842': <CalcType.GGA_U_Static: 'GGA+U Static'>, 'mp-841656': <CalcType.GGA_NSCF_Line: 'GGA NSCF Line'>, 'mp-1637570': <CalcType.GGA_U_NSCF_Line: 'GGA+U NSCF Line'>, 'mp-825226': <CalcType.GGA_U_NSCF_Line: 'GGA+U NSCF Line'>}"
mp-1221479,Na6 Mn4 Cu2 H20 S8 O34,3.905599999999999,"{'mp-1221479': <CalcType.GGA_U_Structure_Optimization: 'GGA+U Structure Optimization'>, 'mp-1909359': <CalcType.GGA_U_Static: 'GGA+U Static'>}"
mp-1221835,Na6 Co4 Cu2 H16 S8 O34,0.3119,"{'mp-1221835': <CalcType.GGA_U_Structure_Optimization: 'GGA+U Structure Optimization'>, 'mp-1894923': <CalcType.GGA_U_Static: 'GGA+U Static'>}"
mp-1221349,Na6 Zn4 Cu2 H16 S8 O34,0.30500000000000005,"{'mp-1221349': <CalcType.GGA_Structure_Optimization: 'GGA Structure Optimization'>, 'mp-1869383': <CalcType.GGA_Static: 'GGA Static'>}"
mp-13726,Na12 Sr4 La4 Zn4 Si24 O68,4.7991,"{'mp-741561': <CalcType.GGA_NSCF_Line: 'GGA NSCF Line'>, 'mp-730071': <CalcType.GGA_Static: 'GGA Static'>, 'mp-13726': <CalcType.GGA_Structure_Optimization: 'GGA Structure Optimization'>, 'mp-1134281': <CalcType.GGA_Structure_Optimization: 'GGA Structure Optimization'>, 'mp-1337369': <CalcType.GGA_Static: 'GGA Static'>}"
mp-693773,Sc2 H32 C6 S6 O34 F18,3.9347000000000003,"{'mp-848882': <CalcType.GGA_NSCF_Line: 'GGA NSCF Line'>, 'mp-725693': <CalcType.GGA_Static: 'GGA Static'>, 'mp-693773': <CalcType.GGA_Structure_Optimization: 'GGA Structure Optimization'>, 'mp-1173473': <CalcType.GGA_Structure_Optimization: 'GGA Structure Optimization'>, 'mp-1337713': <CalcType.GGA_Static: 'GGA Static'>, 'mp-1844770': <CalcType.GGA_Static: 'GGA Static'>, 'mp-744779': <CalcType.GGA_NSCF_Line: 'GGA NSCF Line'>}"
mp-1228697,Ba4 Ce1 Eu3 Tl2 Cu4 O18,0.0,"{'mp-1228697': <CalcType.GGA_Structure_Optimization: 'GGA Structure Optimization'>, 'mp-1658156': <CalcType.GGA_Static: 'GGA Static'>}"
mp-1234197,Mg1 Zn3 Cu2 H14 S2 O18,1.3717000000000001,{'mp-1234197': <CalcType.GGA_Structure_Optimization: 'GGA Structure Optimization'>}
mp-1233645,Ba2 Mg1 Fe2 B2 P4 O18,3.5389,{'mp-1233645': <CalcType.GGA_U_Structure_Optimization: 'GGA+U Structure Optimization'>}
mp-1233803,Ba2 Mg1 Fe2 B2 P4 O18,3.891599999999999,{'mp-1233803': <CalcType.GGA_U_Static: 'GGA+U Static'>}
mp-1234553,Mg1 Zn3 Cu2 H14 S2 O18,1.3120999999999992,{'mp-1234553': <CalcType.GGA_Structure_Optimization: 'GGA Structure Optimization'>}
mp-1235006,Mg1 Zn3 Cu2 H14 S2 O18,1.135,{'mp-1235006': <CalcType.GGA_Structure_Optimization: 'GGA Structure Optimization'>}
mp-1234736,Ba2 Mg1 Fe2 B2 P4 O18,3.5191,{'mp-1234736': <CalcType.GGA_U_Structure_Optimization: 'GGA+U Structure Optimization'>}
mp-766470,Na6 Ca3 Mn1 C6 O18 F2,4.4368,"{'mp-767841': <CalcType.GGA_U_Structure_Optimization: 'GGA+U Structure Optimization'>, 'mp-802550': <CalcType.GGA_U_Static: 'GGA+U Static'>, 'mp-810106': <CalcType.GGA_U_NSCF_Line: 'GGA+U NSCF Line'>, 'mp-766470': <CalcType.GGA_Structure_Optimization: 'GGA Structure Optimization'>, 'mp-1356319': <CalcType.GGA_U_Static: 'GGA+U Static'>, 'mp-810847': <CalcType.GGA_U_NSCF_Line: 'GGA+U NSCF Line'>, 'mp-831764': <CalcType.GGA_NSCF_Line: 'GGA NSCF Line'>, 'mp-1818219': <CalcType.GGA_U_Static: 'GGA+U Static'>, 'mp-828219': <CalcType.GGA_Static: 'GGA Static'>, 'mp-831037': <CalcType.GGA_NSCF_Line: 'GGA NSCF Line'>}"
mp-766468,Li6 Ca3 Mn1 C6 O18 F2,4.701300000000001,"{'mp-767847': <CalcType.GGA_U_Structure_Optimization: 'GGA+U Structure Optimization'>, 'mp-802544': <CalcType.GGA_U_Static: 'GGA+U Static'>, 'mp-810095': <CalcType.GGA_U_NSCF_Line: 'GGA+U NSCF Line'>, 'mp-766468': <CalcType.GGA_Structure_Optimization: 'GGA Structure Optimization'>, 'mp-1355787': <CalcType.GGA_U_Static: 'GGA+U Static'>, 'mp-831762': <CalcType.GGA_NSCF_Line: 'GGA NSCF Line'>, 'mp-810834': <CalcType.GGA_U_NSCF_Line: 'GGA+U NSCF Line'>, 'mp-828218': <CalcType.GGA_Static: 'GGA Static'>, 'mp-830998': <CalcType.GGA_NSCF_Line: 'GGA NSCF Line'>, 'mp-1680050': <CalcType.GGA_U_NSCF_Uniform: 'GGA+U NSCF Uniform'>, 'mp-1840622': <CalcType.GGA_U_Static: 'GGA+U Static'>}"
mp-1197875,Ba8 Na2 Al4 B16 Br6 O36,3.8869,"{'mp-1197875': <CalcType.GGA_Structure_Optimization: 'GGA Structure Optimization'>, 'mp-1204945': <CalcType.GGA_Structure_Optimization: 'GGA Structure Optimization'>, 'mp-1353582': <CalcType.GGA_Static: 'GGA Static'>, 'mp-1682622': <CalcType.GGA_NSCF_Uniform: 'GGA NSCF Uniform'>, 'mp-1849127': <CalcType.GGA_Static: 'GGA Static'>}"
mp-1195176,Ba8 Na2 Ga4 B16 Cl6 O36,4.4113,"{'mp-1195176': <CalcType.GGA_Structure_Optimization: 'GGA Structure Optimization'>, 'mp-1349025': <CalcType.GGA_Static: 'GGA Static'>, 'mp-1686077': <CalcType.GGA_NSCF_Uniform: 'GGA NSCF Uniform'>}"
mp-1195423,Ba8 Na2 Ga4 B16 Br6 O36,3.4734,"{'mp-1195423': <CalcType.GGA_Structure_Optimization: 'GGA Structure Optimization'>, 'mp-1353545': <CalcType.GGA_Static: 'GGA Static'>}"
mp-1204585,Ba8 Na2 Al4 B16 Cl6 O36,4.673,"{'mp-1204585': <CalcType.GGA_Structure_Optimization: 'GGA Structure Optimization'>, 'mp-1351104': <CalcType.GGA_Static: 'GGA Static'>, 'mp-1680899': <CalcType.GGA_NSCF_Uniform: 'GGA NSCF Uniform'>}"
mp-697563,Ca4 Mg1 B4 H6 C2 O18,4.3467,"{'mp-743004': <CalcType.GGA_NSCF_Line: 'GGA NSCF Line'>, 'mp-697563': <CalcType.GGA_Structure_Optimization: 'GGA Structure Optimization'>, 'mp-731956': <CalcType.GGA_Static: 'GGA Static'>, 'mp-1406722': <CalcType.GGA_Static: 'GGA Static'>, 'mp-1837927': <CalcType.GGA_Static: 'GGA Static'>, 'mp-749732': <CalcType.GGA_NSCF_Line: 'GGA NSCF Line'>}"
mp-1196129,Na4 Fe6 P4 H4 C16 O36,0.2988,"{'mp-1196129': <CalcType.GGA_U_Structure_Optimization: 'GGA+U Structure Optimization'>, 'mp-1879087': <CalcType.GGA_U_Static: 'GGA+U Static'>, 'mp-1987642': <CalcType.GGA_U_Static: 'GGA+U Static'>}"
mp-1197360,Na4 Mn6 P4 H4 C16 O36,0.43160000000000004,"{'mp-1197360': <CalcType.GGA_U_Structure_Optimization: 'GGA+U Structure Optimization'>, 'mp-1238640': <CalcType.GGA_U_Structure_Optimization: 'GGA+U Structure Optimization'>, 'mp-1353131': <CalcType.GGA_U_Static: 'GGA+U Static'>, 'mp-1845139': <CalcType.GGA_U_Static: 'GGA+U Static'>}"
mp-1199057,Ba8 Na2 B20 Cl2 O36 F4,5.2856,"{'mp-1199057': <CalcType.GGA_Structure_Optimization: 'GGA Structure Optimization'>, 'mp-1200237': <CalcType.GGA_Structure_Optimization: 'GGA Structure Optimization'>, 'mp-1350789': <CalcType.GGA_Static: 'GGA Static'>, 'mp-1679957': <CalcType.GGA_NSCF_Uniform: 'GGA NSCF Uniform'>, 'mp-1897492': <CalcType.GGA_Static: 'GGA Static'>}"
mp-707983,Ca4 Mg2 B4 H32 C4 O36,4.988099999999999,"{'mp-864182': <CalcType.GGA_NSCF_Line: 'GGA NSCF Line'>, 'mp-707983': <CalcType.GGA_Structure_Optimization: 'GGA Structure Optimization'>, 'mp-729590': <CalcType.GGA_Static: 'GGA Static'>, 'mp-1350203': <CalcType.GGA_Static: 'GGA Static'>, 'mp-738221': <CalcType.GGA_NSCF_Line: 'GGA NSCF Line'>, 'mp-1678859': <CalcType.GGA_NSCF_Uniform: 'GGA NSCF Uniform'>, 'mp-1886774': <CalcType.GGA_Static: 'GGA Static'>}"
mp-720279,Na8 H40 Ru2 S8 N4 O36,3.3252,"{'mp-720279': <CalcType.GGA_Structure_Optimization: 'GGA Structure Optimization'>, 'mp-734051': <CalcType.GGA_Static: 'GGA Static'>, 'mp-774706': <CalcType.GGA_Structure_Optimization: 'GGA Structure Optimization'>, 'mp-844402': <CalcType.GGA_NSCF_Line: 'GGA NSCF Line'>, 'mp-1328781': <CalcType.GGA_Static: 'GGA Static'>, 'mp-745247': <CalcType.GGA_NSCF_Line: 'GGA NSCF Line'>, 'mp-1849443': <CalcType.GGA_Static: 'GGA Static'>}"
mp-534778,Na2 Ca4 Sc2 Zn4 Si12 O36,4.494099999999999,"{'mp-725191': <CalcType.GGA_Static: 'GGA Static'>, 'mp-739763': <CalcType.GGA_NSCF_Line: 'GGA NSCF Line'>, 'mp-534778': <CalcType.GGA_Structure_Optimization: 'GGA Structure Optimization'>, 'mp-1157263': <CalcType.GGA_Structure_Optimization: 'GGA Structure Optimization'>, 'mp-1252100': <CalcType.GGA_NMR_Electric_Field_Gradient: 'GGA NMR Electric Field Gradient'>, 'mp-1253226': <CalcType.GGA_Structure_Optimization: 'GGA Structure Optimization'>, 'mp-1253974': <CalcType.GGA_NMR_Nuclear_Shielding: 'GGA NMR Nuclear Shielding'>, 'mp-1364646': <CalcType.GGA_Static: 'GGA Static'>, 'mp-1890185': <CalcType.GGA_Static: 'GGA Static'>, 'mp-747209': <CalcType.GGA_NSCF_Line: 'GGA NSCF Line'>}"
mp-1199850,Bi2 H36 C6 S6 O36 F18,5.5252,"{'mp-1199850': <CalcType.GGA_Structure_Optimization: 'GGA Structure Optimization'>, 'mp-1364467': <CalcType.GGA_Static: 'GGA Static'>, 'mp-1846525': <CalcType.GGA_Static: 'GGA Static'>}"
mp-540956,Y2 H36 C6 S6 O36 F18,5.959099999999999,"{'mp-733180': <CalcType.GGA_NSCF_Line: 'GGA NSCF Line'>, 'mp-540956': <CalcType.GGA_Structure_Optimization: 'GGA Structure Optimization'>, 'mp-728520': <CalcType.GGA_Static: 'GGA Static'>, 'mp-1327814': <CalcType.GGA_Static: 'GGA Static'>, 'mp-1849736': <CalcType.GGA_Static: 'GGA Static'>, 'mp-737714': <CalcType.GGA_NSCF_Line: 'GGA NSCF Line'>}"
mp-540953,La2 H36 C6 S6 O36 F18,5.3632,"{'mp-732818': <CalcType.GGA_NSCF_Line: 'GGA NSCF Line'>, 'mp-540953': <CalcType.GGA_Structure_Optimization: 'GGA Structure Optimization'>, 'mp-728085': <CalcType.GGA_Static: 'GGA Static'>, 'mp-1328590': <CalcType.GGA_Static: 'GGA Static'>, 'mp-737441': <CalcType.GGA_NSCF_Line: 'GGA NSCF Line'>}"
mp-543032,Nd2 H36 C6 S6 O36 F18,6.0577,"{'mp-728010': <CalcType.GGA_Static: 'GGA Static'>, 'mp-732759': <CalcType.GGA_NSCF_Line: 'GGA NSCF Line'>, 'mp-543032': <CalcType.GGA_Structure_Optimization: 'GGA Structure Optimization'>, 'mp-1328248': <CalcType.GGA_Static: 'GGA Static'>, 'mp-1848894': <CalcType.GGA_Static: 'GGA Static'>, 'mp-1583920': <CalcType.GGA_NSCF_Line: 'GGA NSCF Line'>, 'mp-737292': <CalcType.GGA_NSCF_Line: 'GGA NSCF Line'>}"
mp-505716,Pu2 H36 C6 S6 O36 F18,0.0,"{'mp-728024': <CalcType.GGA_Static: 'GGA Static'>, 'mp-505716': <CalcType.GGA_Structure_Optimization: 'GGA Structure Optimization'>, 'mp-732811': <CalcType.GGA_NSCF_Line: 'GGA NSCF Line'>, 'mp-1363854': <CalcType.GGA_Static: 'GGA Static'>, 'mp-737483': <CalcType.GGA_NSCF_Line: 'GGA NSCF Line'>}"
mp-540955,Lu2 H36 C6 S6 O36 F18,5.774800000000001,"{'mp-728526': <CalcType.GGA_Static: 'GGA Static'>, 'mp-733192': <CalcType.GGA_NSCF_Line: 'GGA NSCF Line'>, 'mp-540955': <CalcType.GGA_Structure_Optimization: 'GGA Structure Optimization'>, 'mp-1326148': <CalcType.GGA_Static: 'GGA Static'>, 'mp-1850603': <CalcType.GGA_Static: 'GGA Static'>, 'mp-737742': <CalcType.GGA_NSCF_Line: 'GGA NSCF Line'>}"
mp-541101,Ho2 H36 C6 S6 O36 F18,5.965999999999999,"{'mp-728009': <CalcType.GGA_Static: 'GGA Static'>, 'mp-541101': <CalcType.GGA_Structure_Optimization: 'GGA Structure Optimization'>, 'mp-732763': <CalcType.GGA_NSCF_Line: 'GGA NSCF Line'>, 'mp-1329919': <CalcType.GGA_Static: 'GGA Static'>, 'mp-1849888': <CalcType.GGA_Static: 'GGA Static'>, 'mp-737336': <CalcType.GGA_NSCF_Line: 'GGA NSCF Line'>}"
mp-707824,Gd2 H36 C6 S6 O36 F18,3.6119,"{'mp-707824': <CalcType.GGA_Structure_Optimization: 'GGA Structure Optimization'>, 'mp-728920': <CalcType.GGA_Static: 'GGA Static'>, 'mp-733452': <CalcType.GGA_NSCF_Line: 'GGA NSCF Line'>, 'mp-1328900': <CalcType.GGA_Static: 'GGA Static'>, 'mp-1846709': <CalcType.GGA_Static: 'GGA Static'>}"
mp-1210852,Na2 Ni1 H20 C12 N12 O18,2.9985,"{'mp-1210852': <CalcType.GGA_U_Structure_Optimization: 'GGA+U Structure Optimization'>, 'mp-1364765': <CalcType.GGA_U_Static: 'GGA+U Static'>, 'mp-1888832': <CalcType.GGA_U_Static: 'GGA+U Static'>}"
mp-558106,Sn1 H58 C16 S4 N22 O18,4.7301,"{'mp-665613': <CalcType.GGA_NSCF_Line: 'GGA NSCF Line'>, 'mp-657834': <CalcType.GGA_Static: 'GGA Static'>, 'mp-680876': <CalcType.GGA_NSCF_Line: 'GGA NSCF Line'>, 'mp-558106': <CalcType.GGA_Structure_Optimization: 'GGA Structure Optimization'>, 'mp-1337774': <CalcType.GGA_Static: 'GGA Static'>, 'mp-1850265': <CalcType.GGA_Static: 'GGA Static'>, 'mp-1629035': <CalcType.GGA_NSCF_Line: 'GGA NSCF Line'>}"
mp-709031,Al8 P8 H22 C6 N2 O36,1.0314,"{'mp-729154': <CalcType.GGA_Static: 'GGA Static'>, 'mp-999630': <CalcType.GGA_NSCF_Line: 'GGA NSCF Line'>, 'mp-709031': <CalcType.GGA_Structure_Optimization: 'GGA Structure Optimization'>, 'mp-1255388': <CalcType.GGA_NMR_Electric_Field_Gradient: 'GGA NMR Electric Field Gradient'>, 'mp-1260051': <CalcType.GGA_NMR_Nuclear_Shielding: 'GGA NMR Nuclear Shielding'>, 'mp-1267644': <CalcType.GGA_Structure_Optimization: 'GGA Structure Optimization'>, 'mp-1326196': <CalcType.GGA_Static: 'GGA Static'>, 'mp-1894660': <CalcType.GGA_Static: 'GGA Static'>, 'mp-1006837': <CalcType.GGA_NSCF_Line: 'GGA NSCF Line'>}"
mp-726800,Mn4 Si4 Sn1 B2 H2 O18,2.7959,"{'mp-743890': <CalcType.GGA_U_Structure_Optimization: 'GGA+U Structure Optimization'>, 'mp-801870': <CalcType.GGA_U_Static: 'GGA+U Static'>, 'mp-808586': <CalcType.GGA_U_NSCF_Line: 'GGA+U NSCF Line'>, 'mp-1134196': <CalcType.GGA_U_Structure_Optimization: 'GGA+U Structure Optimization'>, 'mp-726800': <CalcType.GGA_Static: 'GGA Static'>, 'mp-1248987': <CalcType.GGA_U_Structure_Optimization: 'GGA+U Structure Optimization'>, 'mp-1266734': <CalcType.GGA_U_NMR_Nuclear_Shielding: 'GGA+U NMR Nuclear Shielding'>, 'mp-1267884': <CalcType.GGA_U_NMR_Electric_Field_Gradient: 'GGA+U NMR Electric Field Gradient'>, 'mp-825901': <CalcType.GGA_Static: 'GGA Static'>, 'mp-830726': <CalcType.GGA_NSCF_Line: 'GGA NSCF Line'>, 'mp-1396153': <CalcType.GGA_U_Static: 'GGA+U Static'>, 'mp-1571235': <CalcType.GGA_U_Structure_Optimization: 'GGA+U Structure Optimization'>, 'mp-1571241': <CalcType.GGA_U_Structure_Optimization: 'GGA+U Structure Optimization'>, 'mp-1569913': <CalcType.GGA_U_Structure_Optimization: 'GGA+U Structure Optimization'>, 'mp-1573034': <CalcType.GGA_U_Structure_Optimization: 'GGA+U Structure Optimization'>, 'mp-1641063': <CalcType.GGA_U_Static: 'GGA+U Static'>, 'mp-1646045': <CalcType.GGA_U_Static: 'GGA+U Static'>, 'mp-1644868': <CalcType.GGA_U_Static: 'GGA+U Static'>, 'mp-1639938': <CalcType.GGA_U_Static: 'GGA+U Static'>, 'mp-1735509': <CalcType.GGA_U_NSCF_Uniform: 'GGA+U NSCF Uniform'>, 'mp-831694': <CalcType.GGA_NSCF_Line: 'GGA NSCF Line'>, 'mp-809239': <CalcType.GGA_U_NSCF_Line: 'GGA+U NSCF Line'>, 'mp-1627531': <CalcType.GGA_U_NSCF_Line: 'GGA+U NSCF Line'>, 'mp-1979217': <CalcType.GGA_U_Static: 'GGA+U Static'>, 'mp-1978753': <CalcType.GGA_U_Static: 'GGA+U Static'>, 'mp-1979431': <CalcType.GGA_U_Static: 'GGA+U Static'>, 'mp-1978781': <CalcType.GGA_U_Static: 'GGA+U Static'>, 'mp-2115698': <CalcType.GGA_U_NSCF_Line: 'GGA+U NSCF Line'>, 'mp-2309445': <CalcType.GGA_U_NSCF_Line: 'GGA+U NSCF Line'>}"
mp-708015,Na2 Cu1 H20 C12 N12 O18,1.064,"{'mp-728336': <CalcType.GGA_Static: 'GGA Static'>, 'mp-708015': <CalcType.GGA_Structure_Optimization: 'GGA Structure Optimization'>, 'mp-733057': <CalcType.GGA_NSCF_Line: 'GGA NSCF Line'>, 'mp-1358818': <CalcType.GGA_Static: 'GGA Static'>, 'mp-1886965': <CalcType.GGA_Static: 'GGA Static'>, 'mp-737593': <CalcType.GGA_NSCF_Line: 'GGA NSCF Line'>}"
mp-1209017,Sr1 Pr12 Al12 Si18 N36 O18,0.4908,"{'mp-1209017': <CalcType.GGA_Structure_Optimization: 'GGA Structure Optimization'>, 'mp-1337617': <CalcType.GGA_Static: 'GGA Static'>, 'mp-1848803': <CalcType.GGA_Static: 'GGA Static'>}"
mp-1218645,Sr4 Ce1 Y3 Fe2 Cu4 O18,0.0,"{'mp-1218645': <CalcType.GGA_U_Structure_Optimization: 'GGA+U Structure Optimization'>, 'mp-1359513': <CalcType.GGA_U_Static: 'GGA+U Static'>, 'mp-1818708': <CalcType.GGA_U_Static: 'GGA+U Static'>}"
mp-1222184,Mg2 Al12 Fe2 Si4 B4 O36,3.7273,"{'mp-1222184': <CalcType.GGA_U_Structure_Optimization: 'GGA+U Structure Optimization'>, 'mp-1364182': <CalcType.GGA_U_Static: 'GGA+U Static'>, 'mp-1938264': <CalcType.GGA_U_Static: 'GGA+U Static'>}"
mp-1218731,Sr5 Ce1 Nd3 Cu4 Pb1 O18,0.0,"{'mp-1218731': <CalcType.GGA_Structure_Optimization: 'GGA Structure Optimization'>, 'mp-1379117': <CalcType.GGA_Static: 'GGA Static'>, 'mp-1682471': <CalcType.GGA_NSCF_Uniform: 'GGA NSCF Uniform'>, 'mp-1820284': <CalcType.GGA_Static: 'GGA Static'>}"
mp-1260118,Sr3 Nd10 Al12 Si18 N36 O18,3.0869,"{'mp-1254665': <CalcType.GGA_NMR_Nuclear_Shielding: 'GGA NMR Nuclear Shielding'>, 'mp-1257206': <CalcType.GGA_NMR_Nuclear_Shielding: 'GGA NMR Nuclear Shielding'>, 'mp-1260118': <CalcType.GGA_Structure_Optimization: 'GGA Structure Optimization'>, 'mp-1265991': <CalcType.GGA_Structure_Optimization: 'GGA Structure Optimization'>, 'mp-1266959': <CalcType.GGA_NMR_Electric_Field_Gradient: 'GGA NMR Electric Field Gradient'>, 'mp-1268072': <CalcType.GGA_NMR_Electric_Field_Gradient: 'GGA NMR Electric Field Gradient'>}"
mp-534935,Sr3 Pr10 Al12 Si18 N36 O18,3.058699999999999,"{'mp-848883': <CalcType.GGA_NSCF_Line: 'GGA NSCF Line'>, 'mp-740021': <CalcType.GGA_Static: 'GGA Static'>, 'mp-534935': <CalcType.GGA_Structure_Optimization: 'GGA Structure Optimization'>, 'mp-1256214': <CalcType.GGA_NMR_Nuclear_Shielding: 'GGA NMR Nuclear Shielding'>, 'mp-1258540': <CalcType.GGA_NMR_Electric_Field_Gradient: 'GGA NMR Electric Field Gradient'>, 'mp-1263477': <CalcType.GGA_NMR_Electric_Field_Gradient: 'GGA NMR Electric Field Gradient'>, 'mp-1263908': <CalcType.GGA_Structure_Optimization: 'GGA Structure Optimization'>, 'mp-1263950': <CalcType.GGA_Structure_Optimization: 'GGA Structure Optimization'>, 'mp-1264559': <CalcType.GGA_NMR_Nuclear_Shielding: 'GGA NMR Nuclear Shielding'>, 'mp-1338656': <CalcType.GGA_Static: 'GGA Static'>, 'mp-1846275': <CalcType.GGA_Static: 'GGA Static'>, 'mp-750828': <CalcType.GGA_NSCF_Line: 'GGA NSCF Line'>}"
mp-720118,Sr3 Nd10 Al12 Si18 N36 O18,3.058899999999999,"{'mp-864255': <CalcType.GGA_NSCF_Line: 'GGA NSCF Line'>, 'mp-734065': <CalcType.GGA_Static: 'GGA Static'>, 'mp-720118': <CalcType.GGA_Structure_Optimization: 'GGA Structure Optimization'>, 'mp-1336308': <CalcType.GGA_Static: 'GGA Static'>, 'mp-745778': <CalcType.GGA_NSCF_Line: 'GGA NSCF Line'>}"
mp-1229293,Al2 Cu12 H24 S2 Cl2 O38,0.0051999999999990006,"{'mp-1229293': <CalcType.GGA_Structure_Optimization: 'GGA Structure Optimization'>, 'mp-1324555': <CalcType.GGA_Static: 'GGA Static'>, 'mp-1656644': <CalcType.GGA_Static: 'GGA Static'>, 'mp-1896606': <CalcType.GGA_Static: 'GGA Static'>}"
mp-1201631,Al2 Cu12 H36 S2 Cl2 O38,0.5487000000000001,"{'mp-1201631': <CalcType.GGA_Structure_Optimization: 'GGA Structure Optimization'>, 'mp-1894122': <CalcType.GGA_Static: 'GGA Static'>, 'mp-1987783': <CalcType.GGA_Static: 'GGA Static'>}"
mp-1204914,V12 Sb2 H70 C24 Cl16 O38,0.10160000000000001,"{'mp-1204914': <CalcType.GGA_U_Structure_Optimization: 'GGA+U Structure Optimization'>, 'mp-1365254': <CalcType.GGA_U_Static: 'GGA+U Static'>}"
mp-534953,Ca8 Ti6 Al2 Si8 O38 F2,2.975799999999999,"{'mp-534953': <CalcType.GGA_Structure_Optimization: 'GGA Structure Optimization'>, 'mp-1134062': <CalcType.GGA_Structure_Optimization: 'GGA Structure Optimization'>, 'mp-1251092': <CalcType.GGA_Structure_Optimization: 'GGA Structure Optimization'>, 'mp-1256898': <CalcType.GGA_NMR_Electric_Field_Gradient: 'GGA NMR Electric Field Gradient'>, 'mp-1258713': <CalcType.GGA_NMR_Electric_Field_Gradient: 'GGA NMR Electric Field Gradient'>, 'mp-1259502': <CalcType.GGA_NMR_Nuclear_Shielding: 'GGA NMR Nuclear Shielding'>, 'mp-1261064': <CalcType.GGA_Structure_Optimization: 'GGA Structure Optimization'>, 'mp-1267617': <CalcType.GGA_NMR_Nuclear_Shielding: 'GGA NMR Nuclear Shielding'>, 'mp-1328224': <CalcType.GGA_Static: 'GGA Static'>, 'mp-1893020': <CalcType.GGA_Static: 'GGA Static'>}"
mp-699265,B2 H12 Ru6 C12 O38 F8,0.0,"{'mp-699265': <CalcType.GGA_Structure_Optimization: 'GGA Structure Optimization'>, 'mp-1326928': <CalcType.GGA_Static: 'GGA Static'>}"