Material ID,Composition,Band Gap,Calc Types
mp-772639,Na10 Li2 Mn4 P4 C4 O28,3.5609,"{'mp-813386': <CalcType.GGA_U_NSCF_Line: 'GGA+U NSCF Line'>, 'mp-773773': <CalcType.GGA_U_Structure_Optimization: 'GGA+U Structure Optimization'>, 'mp-804411': <CalcType.GGA_U_Static: 'GGA+U Static'>, 'mp-772639': <CalcType.GGA_Structure_Optimization: 'GGA Structure Optimization'>, 'mp-1351355': <CalcType.GGA_U_Static: 'GGA+U Static'>, 'mp-833509': <CalcType.GGA_NSCF_Line: 'GGA NSCF Line'>, 'mp-814042': <CalcType.GGA_U_NSCF_Line: 'GGA+U NSCF Line'>, 'mp-1938013': <CalcType.GGA_U_Static: 'GGA+U Static'>, 'mp-829646': <CalcType.GGA_Static: 'GGA Static'>, 'mp-832746': <CalcType.GGA_NSCF_Line: 'GGA NSCF Line'>}"
mp-772851,Na6 Li6 Fe4 P4 C4 O28,1.5272000000000001,"{'mp-773524': <CalcType.GGA_U_Structure_Optimization: 'GGA+U Structure Optimization'>, 'mp-813258': <CalcType.GGA_U_NSCF_Line: 'GGA+U NSCF Line'>, 'mp-804594': <CalcType.GGA_U_Static: 'GGA+U Static'>, 'mp-772851': <CalcType.GGA_Structure_Optimization: 'GGA Structure Optimization'>, 'mp-1348721': <CalcType.GGA_U_Static: 'GGA+U Static'>, 'mp-814009': <CalcType.GGA_U_NSCF_Line: 'GGA+U NSCF Line'>, 'mp-1656510': <CalcType.GGA_U_Static: 'GGA+U Static'>, 'mp-1887705': <CalcType.GGA_U_Static: 'GGA+U Static'>, 'mp-1683249': <CalcType.GGA_U_NSCF_Uniform: 'GGA+U NSCF Uniform'>}"
mp-772931,Na6 Li6 Fe4 P4 C4 O28,2.188399999999999,"{'mp-804739': <CalcType.GGA_U_Static: 'GGA+U Static'>, 'mp-773717': <CalcType.GGA_U_Structure_Optimization: 'GGA+U Structure Optimization'>, 'mp-813313': <CalcType.GGA_U_NSCF_Line: 'GGA+U NSCF Line'>, 'mp-772931': <CalcType.GGA_Structure_Optimization: 'GGA Structure Optimization'>, 'mp-1349180': <CalcType.GGA_U_Static: 'GGA+U Static'>, 'mp-814022': <CalcType.GGA_U_NSCF_Line: 'GGA+U NSCF Line'>, 'mp-1936480': <CalcType.GGA_U_Static: 'GGA+U Static'>, 'mp-1683841': <CalcType.GGA_U_NSCF_Uniform: 'GGA+U NSCF Uniform'>}"
mp-772498,Na6 Li6 Mn4 P4 C4 O28,3.5084,"{'mp-1176371': <CalcType.GGA_U_Structure_Optimization: 'GGA+U Structure Optimization'>, 'mp-772498': <CalcType.GGA_Structure_Optimization: 'GGA Structure Optimization'>, 'mp-1351822': <CalcType.GGA_U_Static: 'GGA+U Static'>, 'mp-833460': <CalcType.GGA_NSCF_Line: 'GGA NSCF Line'>, 'mp-1770473': <CalcType.GGA_U_Static: 'GGA+U Static'>, 'mp-1888756': <CalcType.GGA_U_Static: 'GGA+U Static'>, 'mp-828845': <CalcType.GGA_Static: 'GGA Static'>, 'mp-832691': <CalcType.GGA_NSCF_Line: 'GGA NSCF Line'>}"
mp-772518,Na10 Li2 Mn4 P4 C4 O28,3.628799999999999,"{'mp-773682': <CalcType.GGA_U_Structure_Optimization: 'GGA+U Structure Optimization'>, 'mp-813448': <CalcType.GGA_U_NSCF_Line: 'GGA+U NSCF Line'>, 'mp-804432': <CalcType.GGA_U_Static: 'GGA+U Static'>, 'mp-772518': <CalcType.GGA_Structure_Optimization: 'GGA Structure Optimization'>, 'mp-1350541': <CalcType.GGA_U_Static: 'GGA+U Static'>, 'mp-833469': <CalcType.GGA_NSCF_Line: 'GGA NSCF Line'>, 'mp-814194': <CalcType.GGA_U_NSCF_Line: 'GGA+U NSCF Line'>, 'mp-1774107': <CalcType.GGA_U_Static: 'GGA+U Static'>, 'mp-1902411': <CalcType.GGA_U_Static: 'GGA+U Static'>, 'mp-832742': <CalcType.GGA_NSCF_Line: 'GGA NSCF Line'>}"
mp-772236,Na6 Li6 Mn4 P4 C4 O28,3.7641,"{'mp-804257': <CalcType.GGA_U_Static: 'GGA+U Static'>, 'mp-773403': <CalcType.GGA_U_Structure_Optimization: 'GGA+U Structure Optimization'>, 'mp-813208': <CalcType.GGA_U_NSCF_Line: 'GGA+U NSCF Line'>, 'mp-772236': <CalcType.GGA_Structure_Optimization: 'GGA Structure Optimization'>, 'mp-1351522': <CalcType.GGA_U_Static: 'GGA+U Static'>, 'mp-833428': <CalcType.GGA_NSCF_Line: 'GGA NSCF Line'>, 'mp-813938': <CalcType.GGA_U_NSCF_Line: 'GGA+U NSCF Line'>, 'mp-1770653': <CalcType.GGA_U_Static: 'GGA+U Static'>, 'mp-1892427': <CalcType.GGA_U_Static: 'GGA+U Static'>, 'mp-832633': <CalcType.GGA_NSCF_Line: 'GGA NSCF Line'>, 'mp-828804': <CalcType.GGA_Static: 'GGA Static'>}"
mp-772307,Na2 Li10 Mn4 P4 C4 O28,3.551799999999999,"{'mp-813206': <CalcType.GGA_U_NSCF_Line: 'GGA+U NSCF Line'>, 'mp-773351': <CalcType.GGA_U_Structure_Optimization: 'GGA+U Structure Optimization'>, 'mp-804241': <CalcType.GGA_U_Static: 'GGA+U Static'>, 'mp-772307': <CalcType.GGA_Structure_Optimization: 'GGA Structure Optimization'>, 'mp-832655': <CalcType.GGA_NSCF_Line: 'GGA NSCF Line'>, 'mp-1351161': <CalcType.GGA_U_Static: 'GGA+U Static'>, 'mp-813929': <CalcType.GGA_U_NSCF_Line: 'GGA+U NSCF Line'>, 'mp-833433': <CalcType.GGA_NSCF_Line: 'GGA NSCF Line'>, 'mp-786363': <CalcType.GGA_Static: 'GGA Static'>, 'mp-828805': <CalcType.GGA_Static: 'GGA Static'>, 'mp-1678898': <CalcType.GGA_U_NSCF_Uniform: 'GGA+U NSCF Uniform'>, 'mp-1936996': <CalcType.GGA_U_Static: 'GGA+U Static'>}"
mp-772559,Na2 Li10 Mn4 P4 C4 O28,3.804699999999999,"{'mp-804426': <CalcType.GGA_U_Static: 'GGA+U Static'>, 'mp-773703': <CalcType.GGA_U_Structure_Optimization: 'GGA+U Structure Optimization'>, 'mp-813509': <CalcType.GGA_U_NSCF_Line: 'GGA+U NSCF Line'>, 'mp-772559': <CalcType.GGA_Structure_Optimization: 'GGA Structure Optimization'>, 'mp-1351513': <CalcType.GGA_U_Static: 'GGA+U Static'>, 'mp-833536': <CalcType.GGA_NSCF_Line: 'GGA NSCF Line'>, 'mp-814263': <CalcType.GGA_U_NSCF_Line: 'GGA+U NSCF Line'>, 'mp-829600': <CalcType.GGA_Static: 'GGA Static'>, 'mp-832850': <CalcType.GGA_NSCF_Line: 'GGA NSCF Line'>, 'mp-1768669': <CalcType.GGA_U_Static: 'GGA+U Static'>, 'mp-1907641': <CalcType.GGA_U_Static: 'GGA+U Static'>}"
mp-772507,Na6 Li6 Mn4 P4 C4 O28,3.7267,"{'mp-804351': <CalcType.GGA_U_Static: 'GGA+U Static'>, 'mp-773530': <CalcType.GGA_U_Structure_Optimization: 'GGA+U Structure Optimization'>, 'mp-813257': <CalcType.GGA_U_NSCF_Line: 'GGA+U NSCF Line'>, 'mp-772507': <CalcType.GGA_Structure_Optimization: 'GGA Structure Optimization'>, 'mp-1348709': <CalcType.GGA_U_Static: 'GGA+U Static'>, 'mp-833452': <CalcType.GGA_NSCF_Line: 'GGA NSCF Line'>, 'mp-813992': <CalcType.GGA_U_NSCF_Line: 'GGA+U NSCF Line'>, 'mp-1770952': <CalcType.GGA_U_Static: 'GGA+U Static'>, 'mp-1890291': <CalcType.GGA_U_Static: 'GGA+U Static'>, 'mp-828826': <CalcType.GGA_Static: 'GGA Static'>, 'mp-832668': <CalcType.GGA_NSCF_Line: 'GGA NSCF Line'>}"
mp-774240,Na3 Li3 Mn2 P2 C2 O14,3.8017000000000003,"{'mp-774240': <CalcType.GGA_U_Structure_Optimization: 'GGA+U Structure Optimization'>, 'mp-805055': <CalcType.GGA_U_Static: 'GGA+U Static'>, 'mp-813644': <CalcType.GGA_U_NSCF_Line: 'GGA+U NSCF Line'>, 'mp-832640': <CalcType.GGA_NSCF_Line: 'GGA NSCF Line'>, 'mp-1371968': <CalcType.GGA_U_Static: 'GGA+U Static'>, 'mp-833391': <CalcType.GGA_NSCF_Line: 'GGA NSCF Line'>, 'mp-814410': <CalcType.GGA_U_NSCF_Line: 'GGA+U NSCF Line'>, 'mp-1653486': <CalcType.GGA_U_Structure_Optimization: 'GGA+U Structure Optimization'>, 'mp-1813262': <CalcType.GGA_U_Static: 'GGA+U Static'>}"
mp-772484,Na6 Li6 Mn4 P4 C4 O28,3.7369,"{'mp-773688': <CalcType.GGA_U_Structure_Optimization: 'GGA+U Structure Optimization'>, 'mp-804365': <CalcType.GGA_U_Static: 'GGA+U Static'>, 'mp-813303': <CalcType.GGA_U_NSCF_Line: 'GGA+U NSCF Line'>, 'mp-772484': <CalcType.GGA_Structure_Optimization: 'GGA Structure Optimization'>, 'mp-1352384': <CalcType.GGA_U_Static: 'GGA+U Static'>, 'mp-833464': <CalcType.GGA_NSCF_Line: 'GGA NSCF Line'>, 'mp-814017': <CalcType.GGA_U_NSCF_Line: 'GGA+U NSCF Line'>, 'mp-1770322': <CalcType.GGA_U_Static: 'GGA+U Static'>, 'mp-1937778': <CalcType.GGA_U_Static: 'GGA+U Static'>, 'mp-828850': <CalcType.GGA_Static: 'GGA Static'>, 'mp-832692': <CalcType.GGA_NSCF_Line: 'GGA NSCF Line'>}"
mp-772546,Na10 Li2 Mn4 P4 C4 O28,3.564899999999999,"{'mp-804367': <CalcType.GGA_U_Static: 'GGA+U Static'>, 'mp-813308': <CalcType.GGA_U_NSCF_Line: 'GGA+U NSCF Line'>, 'mp-773704': <CalcType.GGA_U_Structure_Optimization: 'GGA+U Structure Optimization'>, 'mp-772546': <CalcType.GGA_Structure_Optimization: 'GGA Structure Optimization'>, 'mp-1349100': <CalcType.GGA_U_Static: 'GGA+U Static'>, 'mp-814019': <CalcType.GGA_U_NSCF_Line: 'GGA+U NSCF Line'>, 'mp-833575': <CalcType.GGA_NSCF_Line: 'GGA NSCF Line'>, 'mp-1887144': <CalcType.GGA_U_Static: 'GGA+U Static'>, 'mp-786546': <CalcType.GGA_Static: 'GGA Static'>, 'mp-832696': <CalcType.GGA_NSCF_Line: 'GGA NSCF Line'>}"
mp-773725,Na2 Li10 Mn4 P4 C4 O28,3.777999999999999,"{'mp-773725': <CalcType.GGA_U_Structure_Optimization: 'GGA+U Structure Optimization'>, 'mp-813384': <CalcType.GGA_U_NSCF_Line: 'GGA+U NSCF Line'>, 'mp-804740': <CalcType.GGA_U_Static: 'GGA+U Static'>, 'mp-1352217': <CalcType.GGA_U_Static: 'GGA+U Static'>, 'mp-833457': <CalcType.GGA_NSCF_Line: 'GGA NSCF Line'>, 'mp-814039': <CalcType.GGA_U_NSCF_Line: 'GGA+U NSCF Line'>, 'mp-832673': <CalcType.GGA_NSCF_Line: 'GGA NSCF Line'>, 'mp-1768811': <CalcType.GGA_U_Static: 'GGA+U Static'>, 'mp-1874710': <CalcType.GGA_U_Static: 'GGA+U Static'>}"
mp-773801,Na2 Li10 Fe4 P4 C4 O28,3.4564,"{'mp-774170': <CalcType.GGA_U_Structure_Optimization: 'GGA+U Structure Optimization'>, 'mp-773801': <CalcType.GGA_Structure_Optimization: 'GGA Structure Optimization'>, 'mp-1353308': <CalcType.GGA_U_Static: 'GGA+U Static'>, 'mp-886995': <CalcType.GGA_Static: 'GGA Static'>, 'mp-1685313': <CalcType.GGA_U_NSCF_Uniform: 'GGA+U NSCF Uniform'>, 'mp-1887987': <CalcType.GGA_U_Static: 'GGA+U Static'>}"
mp-776731,Na6 Li6 Fe4 P4 C4 O28,0.0,"{'mp-776731': <CalcType.GGA_U_Structure_Optimization: 'GGA+U Structure Optimization'>, 'mp-1348930': <CalcType.GGA_U_Static: 'GGA+U Static'>, 'mp-886996': <CalcType.GGA_Static: 'GGA Static'>}"
mp-1218589,Sr4 Ca1 Pr2 Cu4 Hg1 O14,0.0,"{'mp-1218589': <CalcType.GGA_Structure_Optimization: 'GGA Structure Optimization'>, 'mp-1369567': <CalcType.GGA_Static: 'GGA Static'>, 'mp-1843010': <CalcType.GGA_Static: 'GGA Static'>}"
mp-1173231,Sr4 Ca1 Y1 Co2 Cu4 O14,0.0,"{'mp-1173231': <CalcType.GGA_U_Structure_Optimization: 'GGA+U Structure Optimization'>, 'mp-1843141': <CalcType.GGA_U_Static: 'GGA+U Static'>}"
mp-1214800,Ba2 Ca2 Eu1 Ti3 Cu2 O14,0.0,"{'mp-1214800': <CalcType.GGA_Structure_Optimization: 'GGA Structure Optimization'>, 'mp-1344561': <CalcType.GGA_Static: 'GGA Static'>, 'mp-1810677': <CalcType.GGA_Static: 'GGA Static'>}"
mp-1214757,Ba2 Ca1 Sm2 Ti3 Cu2 O14,0.0,"{'mp-1214757': <CalcType.GGA_Structure_Optimization: 'GGA Structure Optimization'>, 'mp-1367661': <CalcType.GGA_Static: 'GGA Static'>, 'mp-1682297': <CalcType.GGA_NSCF_Uniform: 'GGA NSCF Uniform'>, 'mp-1806001': <CalcType.GGA_Static: 'GGA Static'>}"
mp-1214744,Ba2 Ca2 Tb1 Ti3 Cu2 O14,0.0,"{'mp-1214744': <CalcType.GGA_Structure_Optimization: 'GGA Structure Optimization'>, 'mp-1375293': <CalcType.GGA_Static: 'GGA Static'>, 'mp-1683709': <CalcType.GGA_NSCF_Uniform: 'GGA NSCF Uniform'>, 'mp-1813249': <CalcType.GGA_Static: 'GGA Static'>}"
mp-1195628,Cs2 K4 Mn6 P8 Cl2 O28,3.6100000000000003,"{'mp-1195628': <CalcType.GGA_U_Structure_Optimization: 'GGA+U Structure Optimization'>, 'mp-1370697': <CalcType.GGA_U_Static: 'GGA+U Static'>, 'mp-1683530': <CalcType.GGA_U_NSCF_Uniform: 'GGA+U NSCF Uniform'>, 'mp-1900686': <CalcType.GGA_U_Static: 'GGA+U Static'>}"
mp-1214612,Ba10 Mg2 Mn2 V8 Cl12 O28,2.6163,"{'mp-1214612': <CalcType.GGA_U_Structure_Optimization: 'GGA+U Structure Optimization'>, 'mp-1328879': <CalcType.GGA_U_Static: 'GGA+U Static'>, 'mp-1851233': <CalcType.GGA_U_Static: 'GGA+U Static'>}"
mp-1218536,Sr4 Ca1 La1 Tl2 Cu4 O14,0.0,"{'mp-1218536': <CalcType.GGA_Structure_Optimization: 'GGA Structure Optimization'>, 'mp-1372206': <CalcType.GGA_Static: 'GGA Static'>, 'mp-1685990': <CalcType.GGA_NSCF_Uniform: 'GGA NSCF Uniform'>, 'mp-1842433': <CalcType.GGA_Static: 'GGA Static'>}"
mp-1173221,Sr4 Ca2 Tl1 Cu4 Pb1 O14,0.0,"{'mp-1173221': <CalcType.GGA_Structure_Optimization: 'GGA Structure Optimization'>, 'mp-1218598': <CalcType.GGA_Structure_Optimization: 'GGA Structure Optimization'>, 'mp-1366452': <CalcType.GGA_Static: 'GGA Static'>, 'mp-1839546': <CalcType.GGA_Static: 'GGA Static'>}"
mp-1198517,Hg16 H36 C16 S12 O56 F36,3.0538,"{'mp-1198517': <CalcType.GGA_Structure_Optimization: 'GGA Structure Optimization'>, 'mp-1987798': <CalcType.GGA_Static: 'GGA Static'>}"
mp-1198847,Co2 H48 C4 S4 N12 O28,1.879,"{'mp-1198847': <CalcType.GGA_U_Structure_Optimization: 'GGA+U Structure Optimization'>, 'mp-1205139': <CalcType.GGA_U_Structure_Optimization: 'GGA+U Structure Optimization'>, 'mp-1237914': <CalcType.GGA_U_Structure_Optimization: 'GGA+U Structure Optimization'>, 'mp-1324244': <CalcType.GGA_U_Static: 'GGA+U Static'>, 'mp-1896711': <CalcType.GGA_U_Static: 'GGA+U Static'>}"
mp-1200184,Zn2 H28 C4 N20 Cl4 O28,3.2476,"{'mp-1200184': <CalcType.GGA_Structure_Optimization: 'GGA Structure Optimization'>, 'mp-1896532': <CalcType.GGA_Static: 'GGA Static'>, 'mp-1985669': <CalcType.GGA_Static: 'GGA Static'>}"
mp-1200723,Fe2 H48 C4 S4 N12 O28,3.9827,"{'mp-1200723': <CalcType.GGA_U_Structure_Optimization: 'GGA+U Structure Optimization'>, 'mp-1203705': <CalcType.GGA_U_Structure_Optimization: 'GGA+U Structure Optimization'>, 'mp-1238734': <CalcType.GGA_U_Structure_Optimization: 'GGA+U Structure Optimization'>, 'mp-1325328': <CalcType.GGA_U_Static: 'GGA+U Static'>, 'mp-1894774': <CalcType.GGA_U_Static: 'GGA+U Static'>}"
mp-728396,Ni2 H48 C4 S4 N12 O28,4.9942,"{'mp-744811': <CalcType.GGA_U_Structure_Optimization: 'GGA+U Structure Optimization'>, 'mp-803925': <CalcType.GGA_U_Static: 'GGA+U Static'>, 'mp-812801': <CalcType.GGA_U_NSCF_Line: 'GGA+U NSCF Line'>, 'mp-728396': <CalcType.GGA_Static: 'GGA Static'>, 'mp-1324230': <CalcType.GGA_U_Static: 'GGA+U Static'>, 'mp-833436': <CalcType.GGA_NSCF_Line: 'GGA NSCF Line'>, 'mp-813451': <CalcType.GGA_U_NSCF_Line: 'GGA+U NSCF Line'>, 'mp-832618': <CalcType.GGA_NSCF_Line: 'GGA NSCF Line'>, 'mp-826011': <CalcType.GGA_Static: 'GGA Static'>, 'mp-1897396': <CalcType.GGA_U_Static: 'GGA+U Static'>}"
mp-766427,K4 Na2 Zn4 H10 C8 O28,4.095000000000001,"{'mp-766427': <CalcType.GGA_Structure_Optimization: 'GGA Structure Optimization'>, 'mp-855348': <CalcType.GGA_NSCF_Line: 'GGA NSCF Line'>, 'mp-852492': <CalcType.GGA_Static: 'GGA Static'>, 'mp-1373511': <CalcType.GGA_Static: 'GGA Static'>, 'mp-1679496': <CalcType.GGA_NSCF_Uniform: 'GGA NSCF Uniform'>, 'mp-1898108': <CalcType.GGA_Static: 'GGA Static'>}"
mp-766230,Rb4 Na2 Zn4 H10 C8 O28,4.034899999999999,"{'mp-852480': <CalcType.GGA_Static: 'GGA Static'>, 'mp-766230': <CalcType.GGA_Structure_Optimization: 'GGA Structure Optimization'>, 'mp-1366755': <CalcType.GGA_Static: 'GGA Static'>, 'mp-855875': <CalcType.GGA_NSCF_Line: 'GGA NSCF Line'>, 'mp-1683154': <CalcType.GGA_NSCF_Uniform: 'GGA NSCF Uniform'>, 'mp-1875603': <CalcType.GGA_Static: 'GGA Static'>, 'mp-2902897': <CalcType.r2SCAN_Structure_Optimization: 'r2SCAN Structure Optimization'>}"
mp-1194719,Cs2 Na4 Fe6 P8 Cl2 O28,3.3634,"{'mp-1194719': <CalcType.GGA_U_Structure_Optimization: 'GGA+U Structure Optimization'>, 'mp-1341370': <CalcType.GGA_U_Static: 'GGA+U Static'>, 'mp-1680799': <CalcType.GGA_U_NSCF_Uniform: 'GGA+U NSCF Uniform'>, 'mp-1900726': <CalcType.GGA_U_Static: 'GGA+U Static'>}"
mp-1194649,Rb2 Na4 Mn6 P8 Cl2 O28,3.6209,"{'mp-1194649': <CalcType.GGA_U_Structure_Optimization: 'GGA+U Structure Optimization'>, 'mp-1371694': <CalcType.GGA_U_Static: 'GGA+U Static'>, 'mp-1880770': <CalcType.GGA_U_Static: 'GGA+U Static'>}"
mp-1197280,K2 Ga4 Ni2 P6 H8 O28,4.1711,"{'mp-1197280': <CalcType.GGA_U_Structure_Optimization: 'GGA+U Structure Optimization'>, 'mp-1890179': <CalcType.GGA_U_Static: 'GGA+U Static'>, 'mp-1982998': <CalcType.GGA_U_Static: 'GGA+U Static'>}"
mp-1195661,Rb2 Na4 Fe6 P8 Cl2 O28,3.894599999999999,"{'mp-1195661': <CalcType.GGA_U_Structure_Optimization: 'GGA+U Structure Optimization'>, 'mp-1378251': <CalcType.GGA_U_Static: 'GGA+U Static'>, 'mp-1880761': <CalcType.GGA_U_Static: 'GGA+U Static'>}"
mp-1195634,Cs2 Na4 Mn6 P8 Cl2 O28,2.5772999999999993,"{'mp-1195634': <CalcType.GGA_U_Structure_Optimization: 'GGA+U Structure Optimization'>, 'mp-1377850': <CalcType.GGA_U_Static: 'GGA+U Static'>, 'mp-1682824': <CalcType.GGA_U_NSCF_Uniform: 'GGA+U NSCF Uniform'>, 'mp-1773183': <CalcType.GGA_U_Static: 'GGA+U Static'>, 'mp-1869459': <CalcType.GGA_U_Static: 'GGA+U Static'>}"
mp-1200042,Mn2 Ga4 P6 H8 N2 O28,1.2659,"{'mp-1200042': <CalcType.GGA_U_Structure_Optimization: 'GGA+U Structure Optimization'>, 'mp-1375718': <CalcType.GGA_U_Static: 'GGA+U Static'>, 'mp-1907628': <CalcType.GGA_U_Static: 'GGA+U Static'>}"
mp-1203519,K2 Mn2 Ga4 P6 H8 O28,3.3886,"{'mp-1203519': <CalcType.GGA_U_Structure_Optimization: 'GGA+U Structure Optimization'>, 'mp-1877215': <CalcType.GGA_U_Static: 'GGA+U Static'>, 'mp-1984240': <CalcType.GGA_U_Static: 'GGA+U Static'>}"
mp-1204881,Cs2 Mn2 Ga4 P6 H8 O28,3.3475,"{'mp-1204881': <CalcType.GGA_U_Structure_Optimization: 'GGA+U Structure Optimization'>, 'mp-1373467': <CalcType.GGA_U_Static: 'GGA+U Static'>, 'mp-1871078': <CalcType.GGA_U_Static: 'GGA+U Static'>}"
mp-1210571,Na4 Cd6 P8 N2 Cl2 O28,0.0,"{'mp-1210571': <CalcType.GGA_Structure_Optimization: 'GGA Structure Optimization'>, 'mp-1332443': <CalcType.GGA_Static: 'GGA Static'>, 'mp-1887094': <CalcType.GGA_Static: 'GGA Static'>}"
mp-23783,Ga4 Ni2 P6 H16 N2 O28,4.2619,"{'mp-818407': <CalcType.GGA_U_Static: 'GGA+U Static'>, 'mp-824228': <CalcType.GGA_U_NSCF_Line: 'GGA+U NSCF Line'>, 'mp-510656': <CalcType.GGA_U_Structure_Optimization: 'GGA+U Structure Optimization'>, 'mp-23783': <CalcType.GGA_Structure_Optimization: 'GGA Structure Optimization'>, 'mp-727328': <CalcType.GGA_Static: 'GGA Static'>, 'mp-1373933': <CalcType.GGA_U_Static: 'GGA+U Static'>, 'mp-1935790': <CalcType.GGA_U_Static: 'GGA+U Static'>, 'mp-825016': <CalcType.GGA_U_NSCF_Line: 'GGA+U NSCF Line'>, 'mp-2912294': <CalcType.r2SCAN_Structure_Optimization: 'r2SCAN Structure Optimization'>}"
mp-720723,K2 Al4 Ni2 P6 H8 O28,1.5108000000000001,"{'mp-801882': <CalcType.GGA_U_Static: 'GGA+U Static'>, 'mp-808593': <CalcType.GGA_U_NSCF_Line: 'GGA+U NSCF Line'>, 'mp-744988': <CalcType.GGA_U_Structure_Optimization: 'GGA+U Structure Optimization'>, 'mp-734268': <CalcType.GGA_Static: 'GGA Static'>, 'mp-720723': <CalcType.GGA_Structure_Optimization: 'GGA Structure Optimization'>, 'mp-1253797': <CalcType.GGA_U_Structure_Optimization: 'GGA+U Structure Optimization'>, 'mp-1254471': <CalcType.GGA_U_NMR_Electric_Field_Gradient: 'GGA+U NMR Electric Field Gradient'>, 'mp-1259919': <CalcType.GGA_U_NMR_Nuclear_Shielding: 'GGA+U NMR Nuclear Shielding'>, 'mp-830715': <CalcType.GGA_NSCF_Line: 'GGA NSCF Line'>, 'mp-828136': <CalcType.GGA_Static: 'GGA Static'>, 'mp-1324012': <CalcType.GGA_U_Static: 'GGA+U Static'>, 'mp-1683151': <CalcType.GGA_U_NSCF_Uniform: 'GGA+U NSCF Uniform'>, 'mp-1883131': <CalcType.GGA_U_Static: 'GGA+U Static'>, 'mp-831711': <CalcType.GGA_NSCF_Line: 'GGA NSCF Line'>, 'mp-809256': <CalcType.GGA_U_NSCF_Line: 'GGA+U NSCF Line'>}"
mp-721813,Al3 H54 C3 S6 N9 O42,5.2875,"{'mp-734159': <CalcType.GGA_Static: 'GGA Static'>, 'mp-738199': <CalcType.GGA_NSCF_Line: 'GGA NSCF Line'>, 'mp-721813': <CalcType.GGA_Structure_Optimization: 'GGA Structure Optimization'>, 'mp-1252741': <CalcType.GGA_NMR_Electric_Field_Gradient: 'GGA NMR Electric Field Gradient'>, 'mp-1254469': <CalcType.GGA_NMR_Nuclear_Shielding: 'GGA NMR Nuclear Shielding'>, 'mp-1268134': <CalcType.GGA_Structure_Optimization: 'GGA Structure Optimization'>, 'mp-1365905': <CalcType.GGA_Static: 'GGA Static'>, 'mp-1844387': <CalcType.GGA_Static: 'GGA Static'>, 'mp-1637526': <CalcType.GGA_NSCF_Line: 'GGA NSCF Line'>, 'mp-745741': <CalcType.GGA_NSCF_Line: 'GGA NSCF Line'>}"
mp-735523,Fe3 P1 H6 Pb1 S1 O14,2.0408,"{'mp-735523': <CalcType.GGA_U_Structure_Optimization: 'GGA+U Structure Optimization'>, 'mp-801867': <CalcType.GGA_U_Static: 'GGA+U Static'>, 'mp-808578': <CalcType.GGA_U_NSCF_Line: 'GGA+U NSCF Line'>, 'mp-883481': <CalcType.GGA_Static: 'GGA Static'>, 'mp-1434702': <CalcType.GGA_U_Static: 'GGA+U Static'>, 'mp-1671757': <CalcType.GGA_U_NSCF_Uniform: 'GGA+U NSCF Uniform'>, 'mp-1861689': <CalcType.GGA_U_Static: 'GGA+U Static'>, 'mp-809237': <CalcType.GGA_U_NSCF_Line: 'GGA+U NSCF Line'>, 'mp-1606737': <CalcType.GGA_U_NSCF_Line: 'GGA+U NSCF Line'>, 'mp-2169412': <CalcType.GGA_U_NSCF_Line: 'GGA+U NSCF Line'>, 'mp-2315751': <CalcType.GGA_U_NSCF_Line: 'GGA+U NSCF Line'>}"