Material ID,Composition,Band Gap,Calc Types
mp-558263,Y2 H48 C18 N12 Cl6 O6,4.6561,"{'mp-657981': <CalcType.GGA_Static: 'GGA Static'>, 'mp-665978': <CalcType.GGA_NSCF_Line: 'GGA NSCF Line'>, 'mp-681324': <CalcType.GGA_NSCF_Line: 'GGA NSCF Line'>, 'mp-558263': <CalcType.GGA_Structure_Optimization: 'GGA Structure Optimization'>, 'mp-1330953': <CalcType.GGA_Static: 'GGA Static'>}"
mp-1196463,Ag4 H48 C16 S8 N20 O12,2.8994,"{'mp-1196463': <CalcType.GGA_Structure_Optimization: 'GGA Structure Optimization'>, 'mp-1332163': <CalcType.GGA_Static: 'GGA Static'>, 'mp-1849794': <CalcType.GGA_Static: 'GGA Static'>, 'mp-1629458': <CalcType.GGA_NSCF_Line: 'GGA NSCF Line'>}"
mp-738695,H48 Os4 C16 N4 O12 F12,2.6477,"{'mp-738695': <CalcType.GGA_Structure_Optimization: 'GGA Structure Optimization'>, 'mp-746059': <CalcType.GGA_Static: 'GGA Static'>, 'mp-848998': <CalcType.GGA_NSCF_Line: 'GGA NSCF Line'>, 'mp-1365061': <CalcType.GGA_Static: 'GGA Static'>, 'mp-1894343': <CalcType.GGA_Static: 'GGA Static'>, 'mp-750760': <CalcType.GGA_NSCF_Line: 'GGA NSCF Line'>}"
mp-766269,Zn4 P4 H20 C8 N16 O12,4.5386,"{'mp-766269': <CalcType.GGA_Structure_Optimization: 'GGA Structure Optimization'>, 'mp-788631': <CalcType.GGA_NSCF_Line: 'GGA NSCF Line'>, 'mp-784965': <CalcType.GGA_Static: 'GGA Static'>, 'mp-1359458': <CalcType.GGA_Static: 'GGA Static'>, 'mp-1889813': <CalcType.GGA_Static: 'GGA Static'>, 'mp-789397': <CalcType.GGA_NSCF_Line: 'GGA NSCF Line'>}"
mp-743619,Co2 H12 C4 S4 N4 O6,1.8544,"{'mp-743619': <CalcType.GGA_U_Structure_Optimization: 'GGA+U Structure Optimization'>, 'mp-818517': <CalcType.GGA_U_Static: 'GGA+U Static'>, 'mp-824427': <CalcType.GGA_U_NSCF_Line: 'GGA+U NSCF Line'>, 'mp-1444344': <CalcType.GGA_U_Static: 'GGA+U Static'>, 'mp-1751991': <CalcType.GGA_U_NSCF_Uniform: 'GGA+U NSCF Uniform'>, 'mp-1816230': <CalcType.GGA_U_Static: 'GGA+U Static'>, 'mp-825066': <CalcType.GGA_U_NSCF_Line: 'GGA+U NSCF Line'>, 'mp-1624689': <CalcType.GGA_U_NSCF_Line: 'GGA+U NSCF Line'>, 'mp-2102705': <CalcType.GGA_U_NSCF_Line: 'GGA+U NSCF Line'>, 'mp-2304059': <CalcType.GGA_U_NSCF_Line: 'GGA+U NSCF Line'>}"
mp-685002,Sr2 Er2 Al3 Si5 N11 O3,0.1751,"{'mp-948874': <CalcType.GGA_NSCF_Line: 'GGA NSCF Line'>, 'mp-938688': <CalcType.GGA_Static: 'GGA Static'>, 'mp-949374': <CalcType.GGA_NSCF_Line: 'GGA NSCF Line'>, 'mp-685002': <CalcType.GGA_Structure_Optimization: 'GGA Structure Optimization'>, 'mp-1154764': <CalcType.GGA_Structure_Optimization: 'GGA Structure Optimization'>, 'mp-1251197': <CalcType.GGA_NMR_Nuclear_Shielding: 'GGA NMR Nuclear Shielding'>, 'mp-1253921': <CalcType.GGA_Structure_Optimization: 'GGA Structure Optimization'>, 'mp-1256682': <CalcType.GGA_Structure_Optimization: 'GGA Structure Optimization'>, 'mp-1257367': <CalcType.GGA_NMR_Electric_Field_Gradient: 'GGA NMR Electric Field Gradient'>, 'mp-1346384': <CalcType.GGA_Static: 'GGA Static'>, 'mp-1842881': <CalcType.GGA_Static: 'GGA Static'>}"
mp-684935,Ba2 Ho2 Al3 Si5 N11 O3,0.0,"{'mp-949373': <CalcType.GGA_NSCF_Line: 'GGA NSCF Line'>, 'mp-948875': <CalcType.GGA_NSCF_Line: 'GGA NSCF Line'>, 'mp-938686': <CalcType.GGA_Static: 'GGA Static'>, 'mp-684935': <CalcType.GGA_Structure_Optimization: 'GGA Structure Optimization'>, 'mp-1154685': <CalcType.GGA_Structure_Optimization: 'GGA Structure Optimization'>, 'mp-1258795': <CalcType.GGA_NMR_Electric_Field_Gradient: 'GGA NMR Electric Field Gradient'>, 'mp-1258922': <CalcType.GGA_Structure_Optimization: 'GGA Structure Optimization'>, 'mp-1259133': <CalcType.GGA_NMR_Nuclear_Shielding: 'GGA NMR Nuclear Shielding'>, 'mp-1260024': <CalcType.GGA_NMR_Nuclear_Shielding: 'GGA NMR Nuclear Shielding'>, 'mp-1261457': <CalcType.GGA_NMR_Electric_Field_Gradient: 'GGA NMR Electric Field Gradient'>, 'mp-1267588': <CalcType.GGA_Structure_Optimization: 'GGA Structure Optimization'>, 'mp-1340914': <CalcType.GGA_Static: 'GGA Static'>, 'mp-1843029': <CalcType.GGA_Static: 'GGA Static'>}"
mp-684728,Ba2 Tm2 Al3 Si5 N11 O3,0.0,"{'mp-938659': <CalcType.GGA_Static: 'GGA Static'>, 'mp-949368': <CalcType.GGA_NSCF_Line: 'GGA NSCF Line'>, 'mp-684728': <CalcType.GGA_Structure_Optimization: 'GGA Structure Optimization'>, 'mp-948841': <CalcType.GGA_NSCF_Line: 'GGA NSCF Line'>, 'mp-1248349': <CalcType.GGA_Structure_Optimization: 'GGA Structure Optimization'>, 'mp-1265976': <CalcType.GGA_Structure_Optimization: 'GGA Structure Optimization'>, 'mp-1340262': <CalcType.GGA_Static: 'GGA Static'>, 'mp-1836095': <CalcType.GGA_Static: 'GGA Static'>}"
mp-1181726,K4 Co2 C8 S8 N8 O6,0.0,"{'mp-1181726': <CalcType.GGA_U_Structure_Optimization: 'GGA+U Structure Optimization'>, 'mp-1849405': <CalcType.GGA_U_Static: 'GGA+U Static'>}"
mp-1181350,K4 Co2 C8 S8 N8 O6,0.545299999999999,"{'mp-1181350': <CalcType.GGA_U_Structure_Optimization: 'GGA+U Structure Optimization'>, 'mp-1850102': <CalcType.GGA_U_Static: 'GGA+U Static'>}"
mp-1196601,K4 Co2 C8 S8 N8 O6,0.895899999999999,"{'mp-1196601': <CalcType.GGA_U_Structure_Optimization: 'GGA+U Structure Optimization'>, 'mp-1875467': <CalcType.GGA_U_Static: 'GGA+U Static'>}"
mp-1204154,K4 Co2 C8 S8 N8 O6,0.0,"{'mp-1204154': <CalcType.GGA_U_Structure_Optimization: 'GGA+U Structure Optimization'>, 'mp-1238104': <CalcType.GGA_U_Structure_Optimization: 'GGA+U Structure Optimization'>, 'mp-1352250': <CalcType.GGA_U_Static: 'GGA+U Static'>, 'mp-1678822': <CalcType.GGA_U_NSCF_Uniform: 'GGA+U NSCF Uniform'>, 'mp-1895613': <CalcType.GGA_U_Static: 'GGA+U Static'>}"
mp-1214427,Ba2 Er2 Al6 Si2 N8 O6,2.611899999999999,"{'mp-1214427': <CalcType.GGA_Structure_Optimization: 'GGA Structure Optimization'>, 'mp-1375599': <CalcType.GGA_Static: 'GGA Static'>, 'mp-1810207': <CalcType.GGA_Static: 'GGA Static'>}"
mp-1208635,Sr2 Er2 Al6 Si2 N8 O6,2.2302,"{'mp-1208635': <CalcType.GGA_Structure_Optimization: 'GGA Structure Optimization'>, 'mp-1370860': <CalcType.GGA_Static: 'GGA Static'>, 'mp-1812221': <CalcType.GGA_Static: 'GGA Static'>}"
mp-1201712,H28 C8 S8 N16 Cl4 O12,3.6582,"{'mp-1201712': <CalcType.GGA_Structure_Optimization: 'GGA Structure Optimization'>, 'mp-1879931': <CalcType.GGA_Static: 'GGA Static'>, 'mp-1984273': <CalcType.GGA_Static: 'GGA Static'>}"
mp-542688,La2 H12 Au6 C12 N12 O6,2.1538,"{'mp-733162': <CalcType.GGA_NSCF_Line: 'GGA NSCF Line'>, 'mp-728516': <CalcType.GGA_Static: 'GGA Static'>, 'mp-542688': <CalcType.GGA_Structure_Optimization: 'GGA Structure Optimization'>, 'mp-1342549': <CalcType.GGA_Static: 'GGA Static'>, 'mp-1886755': <CalcType.GGA_Static: 'GGA Static'>, 'mp-737681': <CalcType.GGA_NSCF_Line: 'GGA NSCF Line'>}"
mp-23772,Tb2 Ag6 H12 C12 N12 O6,2.5854,"{'mp-681955': <CalcType.GGA_NSCF_Line: 'GGA NSCF Line'>, 'mp-658097': <CalcType.GGA_Static: 'GGA Static'>, 'mp-666524': <CalcType.GGA_NSCF_Line: 'GGA NSCF Line'>, 'mp-562391': <CalcType.GGA_Structure_Optimization: 'GGA Structure Optimization'>, 'mp-23772': <CalcType.GGA_Structure_Optimization: 'GGA Structure Optimization'>, 'mp-1375017': <CalcType.GGA_Static: 'GGA Static'>, 'mp-1936585': <CalcType.GGA_Static: 'GGA Static'>}"
mp-1204043,Co4 H72 C4 N24 Cl4 O12,2.3067,"{'mp-1204043': <CalcType.GGA_U_Structure_Optimization: 'GGA+U Structure Optimization'>, 'mp-1238936': <CalcType.GGA_U_Structure_Optimization: 'GGA+U Structure Optimization'>, 'mp-1336548': <CalcType.GGA_U_Static: 'GGA+U Static'>, 'mp-1629052': <CalcType.GGA_U_NSCF_Line: 'GGA+U NSCF Line'>}"
mp-1105376,Zr2 P2 C2 N2 O6 F6,0.0,"{'mp-1105376': <CalcType.GGA_Structure_Optimization: 'GGA Structure Optimization'>, 'mp-1429825': <CalcType.GGA_Static: 'GGA Static'>, 'mp-1709078': <CalcType.GGA_NSCF_Uniform: 'GGA NSCF Uniform'>, 'mp-1837921': <CalcType.GGA_Static: 'GGA Static'>, 'mp-1607650': <CalcType.GGA_NSCF_Line: 'GGA NSCF Line'>, 'mp-2170607': <CalcType.GGA_NSCF_Line: 'GGA NSCF Line'>, 'mp-2686127': <CalcType.GGA_NSCF_Line: 'GGA NSCF Line'>}"
mp-1192921,Sn2 H14 C4 Se2 Cl2 O6,4.431999999999999,"{'mp-1192921': <CalcType.GGA_Structure_Optimization: 'GGA Structure Optimization'>, 'mp-1396187': <CalcType.GGA_Static: 'GGA Static'>, 'mp-1760173': <CalcType.GGA_NSCF_Uniform: 'GGA NSCF Uniform'>, 'mp-1817917': <CalcType.GGA_Static: 'GGA Static'>, 'mp-1626252': <CalcType.GGA_NSCF_Line: 'GGA NSCF Line'>, 'mp-2100572': <CalcType.GGA_NSCF_Line: 'GGA NSCF Line'>, 'mp-2309942': <CalcType.GGA_NSCF_Line: 'GGA NSCF Line'>}"
mp-1196706,Sb2 H4 C2 S2 O6 F18,4.9442,"{'mp-1196706': <CalcType.GGA_Structure_Optimization: 'GGA Structure Optimization'>, 'mp-1826050': <CalcType.GGA_Static: 'GGA Static'>, 'mp-1982512': <CalcType.GGA_Static: 'GGA Static'>}"
mp-1203137,Sn4 As4 H48 C16 S4 O6,3.1092,"{'mp-1203137': <CalcType.GGA_Structure_Optimization: 'GGA Structure Optimization'>, 'mp-1846100': <CalcType.GGA_Static: 'GGA Static'>, 'mp-1983241': <CalcType.GGA_Static: 'GGA Static'>}"
mp-1225274,Fe4 P4 H4 C16 O12 F12,2.6128,"{'mp-1225274': <CalcType.GGA_U_Structure_Optimization: 'GGA+U Structure Optimization'>, 'mp-1896117': <CalcType.GGA_U_Static: 'GGA+U Static'>}"
mp-554598,B4 H20 C4 N2 Cl2 O6,3.8874,"{'mp-554598': <CalcType.GGA_Structure_Optimization: 'GGA Structure Optimization'>, 'mp-1842861': <CalcType.GGA_Static: 'GGA Static'>}"
mp-554977,B4 H20 C4 N2 Cl2 O6,4.0008,"{'mp-654828': <CalcType.GGA_Static: 'GGA Static'>, 'mp-554977': <CalcType.GGA_Structure_Optimization: 'GGA Structure Optimization'>, 'mp-659205': <CalcType.GGA_NSCF_Line: 'GGA NSCF Line'>, 'mp-656020': <CalcType.GGA_NSCF_Line: 'GGA NSCF Line'>, 'mp-1403303': <CalcType.GGA_Static: 'GGA Static'>, 'mp-1744330': <CalcType.GGA_NSCF_Uniform: 'GGA NSCF Uniform'>, 'mp-1842497': <CalcType.GGA_Static: 'GGA Static'>, 'mp-1586844': <CalcType.GGA_NSCF_Line: 'GGA NSCF Line'>, 'mp-2099050': <CalcType.GGA_NSCF_Line: 'GGA NSCF Line'>}"
mp-656345,B4 H20 C4 N2 Cl2 O6,0.0,"{'mp-669142': <CalcType.GGA_NSCF_Line: 'GGA NSCF Line'>, 'mp-656345': <CalcType.GGA_Static: 'GGA Static'>, 'mp-659610': <CalcType.GGA_NSCF_Line: 'GGA NSCF Line'>, 'mp-1445984': <CalcType.GGA_Static: 'GGA Static'>, 'mp-1732507': <CalcType.GGA_NSCF_Uniform: 'GGA NSCF Uniform'>}"
mp-720849,Na8 H24 Pt4 C16 N16 O12,2.673,"{'mp-734293': <CalcType.GGA_Static: 'GGA Static'>, 'mp-738283': <CalcType.GGA_NSCF_Line: 'GGA NSCF Line'>, 'mp-720849': <CalcType.GGA_Structure_Optimization: 'GGA Structure Optimization'>, 'mp-1326626': <CalcType.GGA_Static: 'GGA Static'>, 'mp-1844845': <CalcType.GGA_Static: 'GGA Static'>, 'mp-745490': <CalcType.GGA_NSCF_Line: 'GGA NSCF Line'>}"
mp-728713,Na8 Ni4 H24 C16 N16 O12,3.510799999999999,"{'mp-818453': <CalcType.GGA_U_Static: 'GGA+U Static'>, 'mp-744567': <CalcType.GGA_U_Structure_Optimization: 'GGA+U Structure Optimization'>, 'mp-824330': <CalcType.GGA_U_NSCF_Line: 'GGA+U NSCF Line'>, 'mp-728713': <CalcType.GGA_Static: 'GGA Static'>, 'mp-840238': <CalcType.GGA_NSCF_Line: 'GGA NSCF Line'>, 'mp-1350389': <CalcType.GGA_U_Static: 'GGA+U Static'>, 'mp-1849133': <CalcType.GGA_U_Static: 'GGA+U Static'>, 'mp-841369': <CalcType.GGA_NSCF_Line: 'GGA NSCF Line'>, 'mp-824999': <CalcType.GGA_U_NSCF_Line: 'GGA+U NSCF Line'>}"
mp-738726,Zr4 H64 C20 N8 O12 F16,3.715799999999999,"{'mp-746013': <CalcType.GGA_Static: 'GGA Static'>, 'mp-738726': <CalcType.GGA_Structure_Optimization: 'GGA Structure Optimization'>, 'mp-750188': <CalcType.GGA_NSCF_Line: 'GGA NSCF Line'>, 'mp-1178634': <CalcType.GGA_Structure_Optimization: 'GGA Structure Optimization'>, 'mp-1336014': <CalcType.GGA_Static: 'GGA Static'>, 'mp-1848869': <CalcType.GGA_Static: 'GGA Static'>, 'mp-750557': <CalcType.GGA_NSCF_Line: 'GGA NSCF Line'>}"
mp-1223558,K1 H8 W1 N2 O3 F3,3.651399999999999,"{'mp-1223558': <CalcType.GGA_U_Structure_Optimization: 'GGA+U Structure Optimization'>, 'mp-1834277': <CalcType.GGA_U_Static: 'GGA+U Static'>}"
mp-540591,Na8 Fe4 H16 C20 N24 O12,2.8033,"{'mp-818937': <CalcType.GGA_U_Static: 'GGA+U Static'>, 'mp-604591': <CalcType.GGA_U_Structure_Optimization: 'GGA+U Structure Optimization'>, 'mp-819766': <CalcType.GGA_U_NSCF_Line: 'GGA+U NSCF Line'>, 'mp-540591': <CalcType.GGA_U_Structure_Optimization: 'GGA+U Structure Optimization'>, 'mp-825644': <CalcType.GGA_Static: 'GGA Static'>, 'mp-835142': <CalcType.GGA_NSCF_Line: 'GGA NSCF Line'>, 'mp-1363727': <CalcType.GGA_U_Static: 'GGA+U Static'>, 'mp-1845175': <CalcType.GGA_U_Static: 'GGA+U Static'>, 'mp-836092': <CalcType.GGA_NSCF_Line: 'GGA NSCF Line'>, 'mp-820857': <CalcType.GGA_U_NSCF_Line: 'GGA+U NSCF Line'>}"
mp-695945,Na8 H16 Ru4 C20 N24 O12,2.334,"{'mp-695945': <CalcType.GGA_Structure_Optimization: 'GGA Structure Optimization'>, 'mp-726311': <CalcType.GGA_Static: 'GGA Static'>, 'mp-739390': <CalcType.GGA_NSCF_Line: 'GGA NSCF Line'>, 'mp-1330132': <CalcType.GGA_Static: 'GGA Static'>, 'mp-1847590': <CalcType.GGA_Static: 'GGA Static'>, 'mp-747381': <CalcType.GGA_NSCF_Line: 'GGA NSCF Line'>}"
mp-720283,K8 H24 Pt4 C16 N16 O12,1.9106,"{'mp-734041': <CalcType.GGA_Static: 'GGA Static'>, 'mp-738131': <CalcType.GGA_NSCF_Line: 'GGA NSCF Line'>, 'mp-720283': <CalcType.GGA_Structure_Optimization: 'GGA Structure Optimization'>, 'mp-1330064': <CalcType.GGA_Static: 'GGA Static'>, 'mp-745467': <CalcType.GGA_NSCF_Line: 'GGA NSCF Line'>}"
mp-705014,Ni8 P16 C44 S8 O12 F96,2.5717,"{'mp-823440': <CalcType.GGA_U_NSCF_Line: 'GGA+U NSCF Line'>, 'mp-705014': <CalcType.GGA_U_Structure_Optimization: 'GGA+U Structure Optimization'>, 'mp-817671': <CalcType.GGA_U_Static: 'GGA+U Static'>, 'mp-724151': <CalcType.GGA_Static: 'GGA Static'>, 'mp-839099': <CalcType.GGA_Static: 'GGA Static'>, 'mp-839950': <CalcType.GGA_NSCF_Line: 'GGA NSCF Line'>}"
mp-1200006,Ag16 H128 C48 S32 N16 O48,2.8782,{'mp-1200006': <CalcType.GGA_Structure_Optimization: 'GGA Structure Optimization'>}
mp-600215,P8 H72 C16 N8 O24 F8,5.7062,"{'mp-663285': <CalcType.GGA_NSCF_Line: 'GGA NSCF Line'>, 'mp-600215': <CalcType.GGA_Structure_Optimization: 'GGA Structure Optimization'>, 'mp-657293': <CalcType.GGA_Static: 'GGA Static'>, 'mp-654739': <CalcType.GGA_Structure_Optimization: 'GGA Structure Optimization'>, 'mp-1179939': <CalcType.GGA_Structure_Optimization: 'GGA Structure Optimization'>, 'mp-1338807': <CalcType.GGA_Static: 'GGA Static'>, 'mp-678568': <CalcType.GGA_NSCF_Line: 'GGA NSCF Line'>}"
mp-555921,P8 H72 Au8 C24 Cl8 O24,3.3974,"{'mp-555921': <CalcType.GGA_Structure_Optimization: 'GGA Structure Optimization'>, 'mp-657517': <CalcType.GGA_Static: 'GGA Static'>, 'mp-679766': <CalcType.GGA_NSCF_Line: 'GGA NSCF Line'>, 'mp-664693': <CalcType.GGA_NSCF_Line: 'GGA NSCF Line'>, 'mp-1337927': <CalcType.GGA_Static: 'GGA Static'>}"
mp-1214013,Cr4 H24 C4 N12 Cl4 O12,2.5332,"{'mp-1214013': <CalcType.GGA_U_Structure_Optimization: 'GGA+U Structure Optimization'>, 'mp-1937783': <CalcType.GGA_U_Static: 'GGA+U Static'>}"
mp-600190,La4 H96 C12 N12 Cl24 O12,4.19,"{'mp-655822': <CalcType.GGA_NSCF_Line: 'GGA NSCF Line'>, 'mp-655050': <CalcType.GGA_Static: 'GGA Static'>, 'mp-659491': <CalcType.GGA_NSCF_Line: 'GGA NSCF Line'>, 'mp-600190': <CalcType.GGA_Structure_Optimization: 'GGA Structure Optimization'>, 'mp-1338658': <CalcType.GGA_Static: 'GGA Static'>}"
mp-1210407,Re2 C8 S8 N16 Cl16 O6,0.0,"{'mp-1210407': <CalcType.GGA_Structure_Optimization: 'GGA Structure Optimization'>, 'mp-1330033': <CalcType.GGA_Static: 'GGA Static'>}"
mp-1223712,K2 H16 W2 N4 O6 F6,3.8835,"{'mp-1223712': <CalcType.GGA_U_Structure_Optimization: 'GGA+U Structure Optimization'>, 'mp-1356521': <CalcType.GGA_U_Static: 'GGA+U Static'>, 'mp-1837382': <CalcType.GGA_U_Static: 'GGA+U Static'>}"
mp-1213673,Cs1 Li1 H4 W2 S1 O3,0.0,"{'mp-1213673': <CalcType.GGA_U_Structure_Optimization: 'GGA+U Structure Optimization'>, 'mp-1835172': <CalcType.GGA_U_Static: 'GGA+U Static'>}"
mp-698449,P2 H24 C4 N12 O6 F2,5.0108,"{'mp-999794': <CalcType.GGA_NSCF_Line: 'GGA NSCF Line'>, 'mp-727544': <CalcType.GGA_Static: 'GGA Static'>, 'mp-698449': <CalcType.GGA_Structure_Optimization: 'GGA Structure Optimization'>, 'mp-1346311': <CalcType.GGA_Static: 'GGA Static'>, 'mp-1825803': <CalcType.GGA_Static: 'GGA Static'>, 'mp-1001636': <CalcType.GGA_NSCF_Line: 'GGA NSCF Line'>}"
mp-1233331,Mg1 Al2 H4 Pb2 O4 F6,0.134599999999999,"{'mp-1233331': <CalcType.GGA_Structure_Optimization: 'GGA Structure Optimization'>, 'mp-1233951': <CalcType.GGA_Static: 'GGA Static'>}"
mp-1232983,Sr4 Li1 Mn2 Cu3 S4 O4,0.41840000000000005,"{'mp-1232983': <CalcType.GGA_U_Structure_Optimization: 'GGA+U Structure Optimization'>, 'mp-1235266': <CalcType.GGA_U_Static: 'GGA+U Static'>}"
mp-1234111,Sr4 Ca1 Mn2 Cu3 S4 O4,0.0,"{'mp-1234111': <CalcType.GGA_U_Structure_Optimization: 'GGA+U Structure Optimization'>, 'mp-1234165': <CalcType.GGA_U_Static: 'GGA+U Static'>}"
mp-1233713,Ca1 Al2 H4 Pb2 O4 F6,0.7255,"{'mp-1233713': <CalcType.GGA_Static: 'GGA Static'>, 'mp-1234063': <CalcType.GGA_Structure_Optimization: 'GGA Structure Optimization'>}"
mp-1235403,Sr4 Li1 Mn2 Cu3 S4 O4,1.0902,"{'mp-1235403': <CalcType.GGA_U_Static: 'GGA+U Static'>, 'mp-1236110': <CalcType.GGA_U_Structure_Optimization: 'GGA+U Structure Optimization'>}"
mp-1235701,Li1 Al2 H4 Pb2 O4 F6,0.300699999999999,"{'mp-1235701': <CalcType.GGA_Static: 'GGA Static'>, 'mp-1236367': <CalcType.GGA_Structure_Optimization: 'GGA Structure Optimization'>}"
mp-1234742,Mg1 Al2 H4 Pb2 O4 F6,0.25269999999999904,"{'mp-1234742': <CalcType.GGA_Static: 'GGA Static'>, 'mp-1234746': <CalcType.GGA_Structure_Optimization: 'GGA Structure Optimization'>}"
mp-1235551,Li1 Al2 H4 Pb2 O4 F6,0.0,{'mp-1235551': <CalcType.GGA_Structure_Optimization: 'GGA Structure Optimization'>}
mp-1235207,Li1 Al2 H4 Pb2 O4 F6,0.37349999999999905,"{'mp-1235207': <CalcType.GGA_Structure_Optimization: 'GGA Structure Optimization'>, 'mp-1235584': <CalcType.GGA_Static: 'GGA Static'>}"
mp-1234487,Sr4 Ca1 Mn2 Cu3 S4 O4,0.0,"{'mp-1234487': <CalcType.GGA_U_Static: 'GGA+U Static'>, 'mp-1234806': <CalcType.GGA_U_Structure_Optimization: 'GGA+U Structure Optimization'>}"
mp-1234876,Ca1 Al2 H4 Pb2 O4 F6,0.7031000000000001,"{'mp-1234876': <CalcType.GGA_Structure_Optimization: 'GGA Structure Optimization'>, 'mp-1234987': <CalcType.GGA_Static: 'GGA Static'>}"
mp-1236388,Li1 Al2 H4 Pb2 O4 F6,0.0,"{'mp-1236388': <CalcType.GGA_Static: 'GGA Static'>, 'mp-1236466': <CalcType.GGA_Structure_Optimization: 'GGA Structure Optimization'>}"
mp-1236447,Li1 Al2 H4 Pb2 O4 F6,0.0,"{'mp-1236447': <CalcType.GGA_Structure_Optimization: 'GGA Structure Optimization'>, 'mp-1236482': <CalcType.GGA_Static: 'GGA Static'>}"
mp-1236109,Sr4 Li1 Mn2 Cu3 S4 O4,1.0064,"{'mp-1236109': <CalcType.GGA_U_Structure_Optimization: 'GGA+U Structure Optimization'>, 'mp-1236623': <CalcType.GGA_U_Static: 'GGA+U Static'>}"
mp-684698,Sn2 As2 H22 C7 Cl2 O4,0.322099999999999,"{'mp-938672': <CalcType.GGA_Static: 'GGA Static'>, 'mp-684698': <CalcType.GGA_Structure_Optimization: 'GGA Structure Optimization'>, 'mp-948891': <CalcType.GGA_NSCF_Line: 'GGA NSCF Line'>, 'mp-949370': <CalcType.GGA_NSCF_Line: 'GGA NSCF Line'>, 'mp-1173316': <CalcType.GGA_Structure_Optimization: 'GGA Structure Optimization'>, 'mp-1356648': <CalcType.GGA_Static: 'GGA Static'>, 'mp-1826142': <CalcType.GGA_Static: 'GGA Static'>}"
mp-684942,Fe2 P2 H10 N2 O8 F2,2.6592000000000002,"{'mp-817813': <CalcType.GGA_U_Static: 'GGA+U Static'>, 'mp-823567': <CalcType.GGA_U_NSCF_Line: 'GGA+U NSCF Line'>, 'mp-705481': <CalcType.GGA_U_Structure_Optimization: 'GGA+U Structure Optimization'>, 'mp-1378054': <CalcType.GGA_U_Static: 'GGA+U Static'>, 'mp-824270': <CalcType.GGA_U_NSCF_Line: 'GGA+U NSCF Line'>, 'mp-1773221': <CalcType.GGA_U_Static: 'GGA+U Static'>, 'mp-1811946': <CalcType.GGA_U_Static: 'GGA+U Static'>, 'mp-684942': <CalcType.GGA_Structure_Optimization: 'GGA Structure Optimization'>}"