Material ID,Composition,Band Gap,Calc Types
mp-1221075,Na4 Ca4 Mg4 Fe4 Si16 O48,2.9279,"{'mp-1221075': <CalcType.GGA_U_Structure_Optimization: 'GGA+U Structure Optimization'>, 'mp-1311991': <CalcType.GGA_U_Structure_Optimization: 'GGA+U Structure Optimization'>, 'mp-1371294': <CalcType.GGA_U_Static: 'GGA+U Static'>, 'mp-1566681': <CalcType.GGA_U_Static: 'GGA+U Static'>, 'mp-1567140': <CalcType.GGA_U_Structure_Optimization: 'GGA+U Structure Optimization'>, 'mp-1567045': <CalcType.GGA_U_Structure_Optimization: 'GGA+U Structure Optimization'>, 'mp-1567142': <CalcType.GGA_U_Static: 'GGA+U Static'>, 'mp-1566910': <CalcType.GGA_U_Structure_Optimization: 'GGA+U Structure Optimization'>, 'mp-1566894': <CalcType.GGA_U_Static: 'GGA+U Static'>, 'mp-1642273': <CalcType.GGA_U_Static: 'GGA+U Static'>, 'mp-1641385': <CalcType.GGA_U_Static: 'GGA+U Static'>, 'mp-1645454': <CalcType.GGA_U_Structure_Optimization: 'GGA+U Structure Optimization'>, 'mp-1644560': <CalcType.GGA_U_Static: 'GGA+U Static'>, 'mp-1645479': <CalcType.GGA_U_Static: 'GGA+U Static'>, 'mp-1639605': <CalcType.GGA_U_Structure_Optimization: 'GGA+U Structure Optimization'>, 'mp-1642423': <CalcType.GGA_U_Static: 'GGA+U Static'>, 'mp-1643386': <CalcType.GGA_U_Static: 'GGA+U Static'>, 'mp-1646994': <CalcType.GGA_U_Structure_Optimization: 'GGA+U Structure Optimization'>, 'mp-1643856': <CalcType.GGA_U_Structure_Optimization: 'GGA+U Structure Optimization'>, 'mp-1643014': <CalcType.GGA_U_Static: 'GGA+U Static'>, 'mp-1646248': <CalcType.GGA_U_Structure_Optimization: 'GGA+U Structure Optimization'>, 'mp-1640833': <CalcType.GGA_U_Static: 'GGA+U Static'>, 'mp-1645822': <CalcType.GGA_U_Structure_Optimization: 'GGA+U Structure Optimization'>, 'mp-1979762': <CalcType.GGA_U_Static: 'GGA+U Static'>, 'mp-1978663': <CalcType.GGA_U_Static: 'GGA+U Static'>, 'mp-1977602': <CalcType.GGA_U_Static: 'GGA+U Static'>, 'mp-1985324': <CalcType.GGA_U_Static: 'GGA+U Static'>, 'mp-1984137': <CalcType.GGA_U_Static: 'GGA+U Static'>, 'mp-1986134': <CalcType.GGA_U_Static: 'GGA+U Static'>, 'mp-1984918': <CalcType.GGA_U_Static: 'GGA+U Static'>}"
mp-1221076,Na1 Ca1 Sc1 Zn1 Si4 O12,4.5618,"{'mp-1221076': <CalcType.GGA_Structure_Optimization: 'GGA Structure Optimization'>, 'mp-1374649': <CalcType.GGA_Static: 'GGA Static'>, 'mp-1683465': <CalcType.GGA_NSCF_Uniform: 'GGA NSCF Uniform'>, 'mp-1776637': <CalcType.GGA_Static: 'GGA Static'>}"
mp-1221077,Na2 Ca2 Mg2 Cr2 Si8 O24,3.5919,"{'mp-1221077': <CalcType.GGA_U_Structure_Optimization: 'GGA+U Structure Optimization'>, 'mp-1291719': <CalcType.GGA_U_Structure_Optimization: 'GGA+U Structure Optimization'>, 'mp-1311575': <CalcType.GGA_U_Static: 'GGA+U Static'>, 'mp-1316844': <CalcType.GGA_U_Structure_Optimization: 'GGA+U Structure Optimization'>, 'mp-1317592': <CalcType.GGA_U_Static: 'GGA+U Static'>, 'mp-1307358': <CalcType.GGA_U_Structure_Optimization: 'GGA+U Structure Optimization'>, 'mp-1316565': <CalcType.GGA_U_Static: 'GGA+U Static'>, 'mp-1347607': <CalcType.GGA_U_Static: 'GGA+U Static'>, 'mp-1566738': <CalcType.GGA_U_Static: 'GGA+U Static'>, 'mp-1566834': <CalcType.GGA_U_Structure_Optimization: 'GGA+U Structure Optimization'>, 'mp-1567044': <CalcType.GGA_U_Structure_Optimization: 'GGA+U Structure Optimization'>, 'mp-1567214': <CalcType.GGA_U_Structure_Optimization: 'GGA+U Structure Optimization'>, 'mp-1566700': <CalcType.GGA_U_Static: 'GGA+U Static'>, 'mp-1566624': <CalcType.GGA_U_Structure_Optimization: 'GGA+U Structure Optimization'>, 'mp-1638443': <CalcType.GGA_U_Structure_Optimization: 'GGA+U Structure Optimization'>, 'mp-1649153': <CalcType.GGA_U_Structure_Optimization: 'GGA+U Structure Optimization'>, 'mp-1638762': <CalcType.GGA_U_Static: 'GGA+U Static'>, 'mp-1649633': <CalcType.GGA_U_Structure_Optimization: 'GGA+U Structure Optimization'>, 'mp-1649298': <CalcType.GGA_U_Structure_Optimization: 'GGA+U Structure Optimization'>, 'mp-1646586': <CalcType.GGA_U_Static: 'GGA+U Static'>, 'mp-1638932': <CalcType.GGA_U_Static: 'GGA+U Static'>, 'mp-1643521': <CalcType.GGA_U_Structure_Optimization: 'GGA+U Structure Optimization'>, 'mp-1639003': <CalcType.GGA_U_Static: 'GGA+U Static'>, 'mp-1646258': <CalcType.GGA_U_Static: 'GGA+U Static'>, 'mp-1649443': <CalcType.GGA_U_Static: 'GGA+U Static'>, 'mp-1977535': <CalcType.GGA_U_Static: 'GGA+U Static'>, 'mp-1985062': <CalcType.GGA_U_Static: 'GGA+U Static'>, 'mp-1982088': <CalcType.GGA_U_Static: 'GGA+U Static'>, 'mp-1982763': <CalcType.GGA_U_Static: 'GGA+U Static'>, 'mp-1984765': <CalcType.GGA_U_Static: 'GGA+U Static'>, 'mp-1986939': <CalcType.GGA_U_Static: 'GGA+U Static'>, 'mp-1987448': <CalcType.GGA_U_Static: 'GGA+U Static'>}"
mp-1221089,Na1 Ca1 Mg1 Al1 Si4 O12,5.0296,"{'mp-1221089': <CalcType.GGA_Structure_Optimization: 'GGA Structure Optimization'>, 'mp-1377368': <CalcType.GGA_Static: 'GGA Static'>, 'mp-1789123': <CalcType.GGA_Static: 'GGA Static'>}"
mp-1173750,Na3 Ca3 Al3 Fe3 Si12 O36,3.222699999999999,"{'mp-1173750': <CalcType.GGA_U_Structure_Optimization: 'GGA+U Structure Optimization'>, 'mp-1324774': <CalcType.GGA_U_Static: 'GGA+U Static'>, 'mp-1935851': <CalcType.GGA_U_Static: 'GGA+U Static'>}"
mp-1173558,Na2 Mn4 Fe2 Ag2 P6 O24,1.1417,"{'mp-1173558': <CalcType.GGA_U_Structure_Optimization: 'GGA+U Structure Optimization'>, 'mp-1221043': <CalcType.GGA_U_Structure_Optimization: 'GGA+U Structure Optimization'>, 'mp-1354352': <CalcType.GGA_U_Static: 'GGA+U Static'>, 'mp-1772029': <CalcType.GGA_U_Static: 'GGA+U Static'>, 'mp-1816472': <CalcType.GGA_U_Static: 'GGA+U Static'>}"
mp-1173728,Na4 Mn2 Cd2 Fe2 P6 O24,1.2365,"{'mp-1173728': <CalcType.GGA_U_Structure_Optimization: 'GGA+U Structure Optimization'>, 'mp-1221368': <CalcType.GGA_U_Structure_Optimization: 'GGA+U Structure Optimization'>, 'mp-1360316': <CalcType.GGA_U_Static: 'GGA+U Static'>, 'mp-1819273': <CalcType.GGA_U_Static: 'GGA+U Static'>}"
mp-1173694,Na3 Ca3 Mg3 Cr3 Si12 O36,3.029299999999999,"{'mp-1173694': <CalcType.GGA_U_Structure_Optimization: 'GGA+U Structure Optimization'>, 'mp-1328290': <CalcType.GGA_U_Static: 'GGA+U Static'>, 'mp-1937279': <CalcType.GGA_U_Static: 'GGA+U Static'>}"
mp-534889,Na3 Ca3 Mg3 Cr3 Si12 O36,3.046,"{'mp-1173712': <CalcType.GGA_U_Structure_Optimization: 'GGA+U Structure Optimization'>, 'mp-728965': <CalcType.GGA_U_Structure_Optimization: 'GGA+U Structure Optimization'>, 'mp-534889': <CalcType.GGA_Structure_Optimization: 'GGA Structure Optimization'>, 'mp-731478': <CalcType.GGA_Static: 'GGA Static'>, 'mp-737743': <CalcType.GGA_U_Static: 'GGA+U Static'>, 'mp-745969': <CalcType.GGA_U_NSCF_Line: 'GGA+U NSCF Line'>, 'mp-1326661': <CalcType.GGA_U_Static: 'GGA+U Static'>, 'mp-1891822': <CalcType.GGA_U_Static: 'GGA+U Static'>, 'mp-750784': <CalcType.GGA_U_NSCF_Line: 'GGA+U NSCF Line'>}"
mp-684743,Ga1 Ge5 H6 C4 N1 O12,1.5423,"{'mp-723993': <CalcType.GGA_Static: 'GGA Static'>, 'mp-684743': <CalcType.GGA_Structure_Optimization: 'GGA Structure Optimization'>, 'mp-735260': <CalcType.GGA_NSCF_Line: 'GGA NSCF Line'>, 'mp-1346059': <CalcType.GGA_Static: 'GGA Static'>, 'mp-1843824': <CalcType.GGA_Static: 'GGA Static'>, 'mp-743452': <CalcType.GGA_NSCF_Line: 'GGA NSCF Line'>}"
mp-776520,Na2 Li2 Ti2 Al2 P6 O24,2.574899999999999,"{'mp-995548': <CalcType.GGA_NSCF_Line: 'GGA NSCF Line'>, 'mp-776520': <CalcType.GGA_Structure_Optimization: 'GGA Structure Optimization'>, 'mp-787851': <CalcType.GGA_Static: 'GGA Static'>, 'mp-1251540': <CalcType.GGA_Structure_Optimization: 'GGA Structure Optimization'>, 'mp-1254867': <CalcType.GGA_NMR_Nuclear_Shielding: 'GGA NMR Nuclear Shielding'>, 'mp-1255474': <CalcType.GGA_NMR_Electric_Field_Gradient: 'GGA NMR Electric Field Gradient'>, 'mp-1380062': <CalcType.GGA_Static: 'GGA Static'>, 'mp-1685415': <CalcType.GGA_NSCF_Uniform: 'GGA NSCF Uniform'>, 'mp-1815703': <CalcType.GGA_Static: 'GGA Static'>, 'mp-996368': <CalcType.GGA_NSCF_Line: 'GGA NSCF Line'>}"
mp-1177596,Li12 Mn4 Fe4 Co4 P12 O48,0.0,"{'mp-1177596': <CalcType.GGA_U_Structure_Optimization: 'GGA+U Structure Optimization'>, 'mp-1333733': <CalcType.GGA_U_Static: 'GGA+U Static'>, 'mp-1770431': <CalcType.GGA_U_Static: 'GGA+U Static'>}"
mp-1177623,Li12 Mn4 Fe4 Co4 P12 O48,2.1681,"{'mp-1177623': <CalcType.GGA_U_Structure_Optimization: 'GGA+U Structure Optimization'>, 'mp-1331157': <CalcType.GGA_U_Static: 'GGA+U Static'>, 'mp-1769961': <CalcType.GGA_U_Static: 'GGA+U Static'>, 'mp-1871960': <CalcType.GGA_U_Static: 'GGA+U Static'>}"
mp-1177625,Li12 Mn4 Fe4 Co4 P12 O48,2.4151,"{'mp-1177625': <CalcType.GGA_U_Structure_Optimization: 'GGA+U Structure Optimization'>, 'mp-1331170': <CalcType.GGA_U_Static: 'GGA+U Static'>, 'mp-1770661': <CalcType.GGA_U_Static: 'GGA+U Static'>, 'mp-1850387': <CalcType.GGA_U_Static: 'GGA+U Static'>}"
mp-1177589,Li12 Mn4 Fe4 Co4 P12 O48,2.2157,{'mp-1177589': <CalcType.GGA_U_Structure_Optimization: 'GGA+U Structure Optimization'>}
mp-1177607,Li12 Mn4 Fe4 Co4 P12 O48,0.204299999999999,"{'mp-1177607': <CalcType.GGA_U_Structure_Optimization: 'GGA+U Structure Optimization'>, 'mp-1333990': <CalcType.GGA_U_Static: 'GGA+U Static'>, 'mp-1770479': <CalcType.GGA_U_Static: 'GGA+U Static'>}"
mp-1177594,Li12 Mn4 Fe4 Co4 P12 O48,2.3362,"{'mp-1177594': <CalcType.GGA_U_Structure_Optimization: 'GGA+U Structure Optimization'>, 'mp-1333392': <CalcType.GGA_U_Static: 'GGA+U Static'>, 'mp-1769498': <CalcType.GGA_U_Static: 'GGA+U Static'>, 'mp-1845909': <CalcType.GGA_U_Static: 'GGA+U Static'>}"
mp-1177593,Li12 Mn4 Fe4 Co4 P12 O48,2.4137,"{'mp-1177593': <CalcType.GGA_U_Structure_Optimization: 'GGA+U Structure Optimization'>, 'mp-1331813': <CalcType.GGA_U_Static: 'GGA+U Static'>, 'mp-1770829': <CalcType.GGA_U_Static: 'GGA+U Static'>, 'mp-1850033': <CalcType.GGA_U_Static: 'GGA+U Static'>}"
mp-1177597,Li12 Mn4 Fe4 Co4 P12 O48,2.448599999999999,"{'mp-1177597': <CalcType.GGA_U_Structure_Optimization: 'GGA+U Structure Optimization'>, 'mp-1332126': <CalcType.GGA_U_Static: 'GGA+U Static'>, 'mp-1770958': <CalcType.GGA_U_Static: 'GGA+U Static'>, 'mp-1896095': <CalcType.GGA_U_Static: 'GGA+U Static'>}"
mp-764912,Li12 Mn4 Fe4 Co4 P12 O48,2.0732,"{'mp-764912': <CalcType.GGA_U_Structure_Optimization: 'GGA+U Structure Optimization'>, 'mp-801396': <CalcType.GGA_U_Static: 'GGA+U Static'>, 'mp-1333753': <CalcType.GGA_U_Static: 'GGA+U Static'>, 'mp-1656580': <CalcType.GGA_U_Static: 'GGA+U Static'>, 'mp-1920302': <CalcType.GGA_U_Static: 'GGA+U Static'>}"
mp-761258,Li12 Mn4 Fe4 Co4 P12 O48,2.251499999999999,"{'mp-804263': <CalcType.GGA_U_Static: 'GGA+U Static'>, 'mp-764809': <CalcType.GGA_U_Structure_Optimization: 'GGA+U Structure Optimization'>, 'mp-761258': <CalcType.GGA_Structure_Optimization: 'GGA Structure Optimization'>, 'mp-1332499': <CalcType.GGA_U_Static: 'GGA+U Static'>, 'mp-1656362': <CalcType.GGA_U_Static: 'GGA+U Static'>, 'mp-1844226': <CalcType.GGA_U_Static: 'GGA+U Static'>}"
mp-764707,Li12 Mn4 Fe4 Co4 P12 O48,1.9995,"{'mp-799837': <CalcType.GGA_U_Static: 'GGA+U Static'>, 'mp-764707': <CalcType.GGA_U_Structure_Optimization: 'GGA+U Structure Optimization'>}"
mp-764969,Li12 Mn4 Fe4 Co4 P12 O48,2.007599999999999,"{'mp-764969': <CalcType.GGA_U_Structure_Optimization: 'GGA+U Structure Optimization'>, 'mp-801144': <CalcType.GGA_U_Static: 'GGA+U Static'>, 'mp-1658283': <CalcType.GGA_U_Static: 'GGA+U Static'>}"
mp-764708,Li12 Mn4 Fe4 Co4 P12 O48,2.2194,"{'mp-764708': <CalcType.GGA_U_Structure_Optimization: 'GGA+U Structure Optimization'>, 'mp-799815': <CalcType.GGA_U_Static: 'GGA+U Static'>, 'mp-1333681': <CalcType.GGA_U_Static: 'GGA+U Static'>, 'mp-1770877': <CalcType.GGA_U_Static: 'GGA+U Static'>, 'mp-1851139': <CalcType.GGA_U_Static: 'GGA+U Static'>}"
mp-764931,Li12 Mn4 Fe4 Co4 P12 O48,2.0595,"{'mp-764931': <CalcType.GGA_U_Structure_Optimization: 'GGA+U Structure Optimization'>, 'mp-801397': <CalcType.GGA_U_Static: 'GGA+U Static'>, 'mp-1333792': <CalcType.GGA_U_Static: 'GGA+U Static'>, 'mp-1659775': <CalcType.GGA_U_Static: 'GGA+U Static'>, 'mp-1849730': <CalcType.GGA_U_Static: 'GGA+U Static'>}"
mp-764867,Li12 Mn4 Fe4 Co4 P12 O48,2.0843,"{'mp-764867': <CalcType.GGA_U_Structure_Optimization: 'GGA+U Structure Optimization'>, 'mp-800049': <CalcType.GGA_U_Static: 'GGA+U Static'>}"
mp-764870,Li12 Mn4 Fe4 Co4 P12 O48,0.0205,"{'mp-764870': <CalcType.GGA_U_Structure_Optimization: 'GGA+U Structure Optimization'>, 'mp-1656481': <CalcType.GGA_U_Static: 'GGA+U Static'>, 'mp-1769699': <CalcType.GGA_U_Static: 'GGA+U Static'>}"
mp-764869,Li12 Mn4 Fe4 Co4 P12 O48,1.383899999999999,"{'mp-764869': <CalcType.GGA_U_Structure_Optimization: 'GGA+U Structure Optimization'>, 'mp-804266': <CalcType.GGA_U_Static: 'GGA+U Static'>}"
mp-555297,Ho4 H64 C8 S8 N4 O48,5.5807,"{'mp-659722': <CalcType.GGA_NSCF_Line: 'GGA NSCF Line'>, 'mp-656208': <CalcType.GGA_NSCF_Line: 'GGA NSCF Line'>, 'mp-555297': <CalcType.GGA_Structure_Optimization: 'GGA Structure Optimization'>, 'mp-654834': <CalcType.GGA_Static: 'GGA Static'>, 'mp-1181281': <CalcType.GGA_Structure_Optimization: 'GGA Structure Optimization'>, 'mp-1337902': <CalcType.GGA_Static: 'GGA Static'>, 'mp-1847647': <CalcType.GGA_Static: 'GGA Static'>}"
mp-1256265,Na2 Ca2 Mg2 Al2 Si8 O24,2.211699999999999,"{'mp-1256265': <CalcType.GGA_Structure_Optimization: 'GGA Structure Optimization'>, 'mp-1267676': <CalcType.GGA_Structure_Optimization: 'GGA Structure Optimization'>, 'mp-1881053': <CalcType.GGA_Static: 'GGA Static'>}"
mp-720244,Na2 Ca2 Mg2 Al2 Si8 O24,2.5874,"{'mp-864193': <CalcType.GGA_NSCF_Line: 'GGA NSCF Line'>, 'mp-720244': <CalcType.GGA_Structure_Optimization: 'GGA Structure Optimization'>, 'mp-733439': <CalcType.GGA_Static: 'GGA Static'>, 'mp-1173744': <CalcType.GGA_Structure_Optimization: 'GGA Structure Optimization'>, 'mp-1354495': <CalcType.GGA_Static: 'GGA Static'>, 'mp-1824694': <CalcType.GGA_Static: 'GGA Static'>, 'mp-745601': <CalcType.GGA_NSCF_Line: 'GGA NSCF Line'>}"
mp-1199347,Zn6 P8 H56 C16 N4 O24,4.9546,"{'mp-1199347': <CalcType.GGA_Structure_Optimization: 'GGA Structure Optimization'>, 'mp-1335887': <CalcType.GGA_Static: 'GGA Static'>, 'mp-1637487': <CalcType.GGA_NSCF_Line: 'GGA NSCF Line'>}"
mp-1221251,Na4 Ni1 Ag2 S8 N5 O12,0.0,"{'mp-1221251': <CalcType.GGA_U_Structure_Optimization: 'GGA+U Structure Optimization'>, 'mp-1379304': <CalcType.GGA_U_Static: 'GGA+U Static'>, 'mp-1893316': <CalcType.GGA_U_Static: 'GGA+U Static'>}"
mp-1233519,Ba6 Ca1 Nb2 Ir1 Cl2 O12,0.0,{'mp-1233519': <CalcType.GGA_Structure_Optimization: 'GGA Structure Optimization'>}
mp-1233107,Ba6 Mg1 Nb2 Ir1 Cl2 O12,0.064599999999999,"{'mp-1233107': <CalcType.GGA_Structure_Optimization: 'GGA Structure Optimization'>, 'mp-2216939': <CalcType.GGA_Static: 'GGA Static'>, 'mp-2220886': <CalcType.GGA_Static: 'GGA Static'>, 'mp-2220666': <CalcType.GGA_Structure_Optimization: 'GGA Structure Optimization'>}"
mp-1235066,Ba6 Li1 Nb2 Ir1 Cl2 O12,1.3188,"{'mp-1235066': <CalcType.GGA_Structure_Optimization: 'GGA Structure Optimization'>, 'mp-1235738': <CalcType.GGA_Static: 'GGA Static'>}"
mp-1235093,Ba6 Li1 Nb2 Ir1 Cl2 O12,1.5034,"{'mp-1235093': <CalcType.GGA_Structure_Optimization: 'GGA Structure Optimization'>, 'mp-1236469': <CalcType.GGA_Static: 'GGA Static'>}"
mp-1232980,Ba6 Li1 Nb2 Ir1 Cl2 O12,1.5718,"{'mp-1232980': <CalcType.GGA_Static: 'GGA Static'>, 'mp-1235515': <CalcType.GGA_Structure_Optimization: 'GGA Structure Optimization'>}"
mp-1234659,Ba6 Mg1 Nb2 Ir1 Cl2 O12,0.23919999999999902,"{'mp-1234659': <CalcType.GGA_Structure_Optimization: 'GGA Structure Optimization'>, 'mp-1234672': <CalcType.GGA_Static: 'GGA Static'>, 'mp-2220641': <CalcType.GGA_Static: 'GGA Static'>, 'mp-2220523': <CalcType.GGA_Structure_Optimization: 'GGA Structure Optimization'>}"
mp-1233485,K2 Ba1 Mg1 Co1 N6 O12,0.0,"{'mp-1233485': <CalcType.GGA_U_Structure_Optimization: 'GGA+U Structure Optimization'>, 'mp-1234635': <CalcType.GGA_U_Static: 'GGA+U Static'>}"
mp-1235514,K2 Ba1 Li1 Co1 N6 O12,0.918,"{'mp-1235514': <CalcType.GGA_U_Static: 'GGA+U Static'>, 'mp-1236040': <CalcType.GGA_U_Structure_Optimization: 'GGA+U Structure Optimization'>}"
mp-2216297,Ba6 Mg1 Nb2 Ir1 Cl2 O12,0.421199999999999,"{'mp-2216297': <CalcType.GGA_Structure_Optimization: 'GGA Structure Optimization'>, 'mp-2217037': <CalcType.GGA_Static: 'GGA Static'>, 'mp-2220480': <CalcType.GGA_Structure_Optimization: 'GGA Structure Optimization'>, 'mp-2220749': <CalcType.GGA_Static: 'GGA Static'>, 'mp-2221061': <CalcType.GGA_Structure_Optimization: 'GGA Structure Optimization'>, 'mp-2221085': <CalcType.GGA_Static: 'GGA Static'>}"
mp-1235768,Ba6 Li1 Nb2 Ir1 Cl2 O12,1.530399999999999,"{'mp-1235768': <CalcType.GGA_Structure_Optimization: 'GGA Structure Optimization'>, 'mp-1236159': <CalcType.GGA_Static: 'GGA Static'>}"
mp-2216178,Ba6 Mg1 Nb2 Ir1 Cl2 O12,0.15759999999999902,"{'mp-2216178': <CalcType.GGA_Structure_Optimization: 'GGA Structure Optimization'>, 'mp-2217047': <CalcType.GGA_Static: 'GGA Static'>, 'mp-2220747': <CalcType.GGA_Structure_Optimization: 'GGA Structure Optimization'>, 'mp-2221003': <CalcType.GGA_Static: 'GGA Static'>, 'mp-2220909': <CalcType.GGA_Structure_Optimization: 'GGA Structure Optimization'>, 'mp-2220953': <CalcType.GGA_Static: 'GGA Static'>}"
mp-43030,Na4 Li4 Al6 Si6 Cl2 O24,4.6301,"{'mp-43030': <CalcType.GGA_Structure_Optimization: 'GGA Structure Optimization'>, 'mp-1134279': <CalcType.GGA_Structure_Optimization: 'GGA Structure Optimization'>, 'mp-1173669': <CalcType.GGA_Structure_Optimization: 'GGA Structure Optimization'>, 'mp-1252402': <CalcType.GGA_NMR_Electric_Field_Gradient: 'GGA NMR Electric Field Gradient'>, 'mp-1260821': <CalcType.GGA_NMR_Nuclear_Shielding: 'GGA NMR Nuclear Shielding'>, 'mp-1262095': <CalcType.GGA_NMR_Electric_Field_Gradient: 'GGA NMR Electric Field Gradient'>, 'mp-1262671': <CalcType.GGA_NMR_Nuclear_Shielding: 'GGA NMR Nuclear Shielding'>, 'mp-1264649': <CalcType.GGA_Structure_Optimization: 'GGA Structure Optimization'>, 'mp-1266688': <CalcType.GGA_Structure_Optimization: 'GGA Structure Optimization'>, 'mp-1350395': <CalcType.GGA_Static: 'GGA Static'>, 'mp-1679195': <CalcType.GGA_NSCF_Uniform: 'GGA NSCF Uniform'>, 'mp-1937587': <CalcType.GGA_Static: 'GGA Static'>}"
mp-1196087,Li1 H12 Au1 C4 S4 O12,2.0848,"{'mp-1196087': <CalcType.GGA_Structure_Optimization: 'GGA Structure Optimization'>, 'mp-1391091': <CalcType.GGA_Static: 'GGA Static'>, 'mp-1821677': <CalcType.GGA_Static: 'GGA Static'>}"
mp-23151,Na4 Be1 Al1 Si4 Cl1 O12,4.6344,"{'mp-1017748': <CalcType.GGA_NSCF_Line: 'GGA NSCF Line'>, 'mp-665202': <CalcType.GGA_Static: 'GGA Static'>, 'mp-1017871': <CalcType.GGA_NSCF_Line: 'GGA NSCF Line'>, 'mp-700823': <CalcType.GGA_NSCF_Line: 'GGA NSCF Line'>, 'mp-679845': <CalcType.GGA_NSCF_Line: 'GGA NSCF Line'>, 'mp-23151': <CalcType.GGA_Structure_Optimization: 'GGA Structure Optimization'>, 'mp-1117496': <CalcType.GGA_DFPT_Dielectric: 'GGA DFPT Dielectric'>, 'mp-1134126': <CalcType.GGA_Structure_Optimization: 'GGA Structure Optimization'>, 'mp-1249272': <CalcType.GGA_NMR_Electric_Field_Gradient: 'GGA NMR Electric Field Gradient'>, 'mp-1249790': <CalcType.GGA_NMR_Nuclear_Shielding: 'GGA NMR Nuclear Shielding'>, 'mp-1250619': <CalcType.GGA_Structure_Optimization: 'GGA Structure Optimization'>, 'mp-1251100': <CalcType.GGA_Structure_Optimization: 'GGA Structure Optimization'>, 'mp-1255007': <CalcType.GGA_NMR_Nuclear_Shielding: 'GGA NMR Nuclear Shielding'>, 'mp-1257262': <CalcType.GGA_NMR_Nuclear_Shielding: 'GGA NMR Nuclear Shielding'>, 'mp-1258684': <CalcType.GGA_NMR_Electric_Field_Gradient: 'GGA NMR Electric Field Gradient'>, 'mp-1263647': <CalcType.GGA_NMR_Electric_Field_Gradient: 'GGA NMR Electric Field Gradient'>, 'mp-1265930': <CalcType.GGA_Structure_Optimization: 'GGA Structure Optimization'>, 'mp-1431719': <CalcType.GGA_Static: 'GGA Static'>, 'mp-1701487': <CalcType.GGA_NSCF_Uniform: 'GGA NSCF Uniform'>, 'mp-1839891': <CalcType.GGA_Static: 'GGA Static'>, 'mp-1600329': <CalcType.GGA_NSCF_Line: 'GGA NSCF Line'>, 'mp-2177785': <CalcType.GGA_NSCF_Line: 'GGA NSCF Line'>, 'mp-2688779': <CalcType.GGA_NSCF_Line: 'GGA NSCF Line'>}"