Material ID,Composition,Band Gap,Calc Types
mp-1200340,Mo4 H80 C28 N4 Cl4 O24,2.6576,"{'mp-1200340': <CalcType.GGA_U_Structure_Optimization: 'GGA+U Structure Optimization'>, 'mp-1984813': <CalcType.GGA_U_Static: 'GGA+U Static'>}"
mp-560721,Na4 Ca4 Be4 Si8 O24 F4,5.510999999999999,"{'mp-722520': <CalcType.GGA_Static: 'GGA Static'>, 'mp-734897': <CalcType.GGA_NSCF_Line: 'GGA NSCF Line'>, 'mp-1017984': <CalcType.GGA_NSCF_Line: 'GGA NSCF Line'>, 'mp-1017897': <CalcType.GGA_NSCF_Line: 'GGA NSCF Line'>, 'mp-560721': <CalcType.GGA_Structure_Optimization: 'GGA Structure Optimization'>, 'mp-1134176': <CalcType.GGA_Structure_Optimization: 'GGA Structure Optimization'>, 'mp-1173707': <CalcType.GGA_Structure_Optimization: 'GGA Structure Optimization'>, 'mp-1255043': <CalcType.GGA_NMR_Nuclear_Shielding: 'GGA NMR Nuclear Shielding'>, 'mp-1256194': <CalcType.GGA_NMR_Electric_Field_Gradient: 'GGA NMR Electric Field Gradient'>, 'mp-1263965': <CalcType.GGA_Structure_Optimization: 'GGA Structure Optimization'>, 'mp-1375941': <CalcType.GGA_Static: 'GGA Static'>, 'mp-1879797': <CalcType.GGA_Static: 'GGA Static'>, 'mp-744501': <CalcType.GGA_NSCF_Line: 'GGA NSCF Line'>, 'mp-2902060': <CalcType.r2SCAN_Structure_Optimization: 'r2SCAN Structure Optimization'>}"
mp-1190989,Cu1 Au2 C4 N4 Cl4 O6,0.0,"{'mp-1190989': <CalcType.GGA_Structure_Optimization: 'GGA Structure Optimization'>, 'mp-1819900': <CalcType.GGA_Static: 'GGA Static'>}"
mp-1197686,Ga2 Ge4 H10 C2 N2 O12,3.7018,"{'mp-1197686': <CalcType.GGA_Structure_Optimization: 'GGA Structure Optimization'>, 'mp-1842912': <CalcType.GGA_Static: 'GGA Static'>}"
mp-1198893,Cu4 H64 C24 S16 N24 O24,0.6443,"{'mp-1198893': <CalcType.GGA_Structure_Optimization: 'GGA Structure Optimization'>, 'mp-1986808': <CalcType.GGA_Static: 'GGA Static'>}"
mp-1199767,Mg1 B2 H42 C26 N14 O6,4.6876999999999995,"{'mp-1199767': <CalcType.GGA_Structure_Optimization: 'GGA Structure Optimization'>, 'mp-1202642': <CalcType.GGA_Structure_Optimization: 'GGA Structure Optimization'>, 'mp-1849442': <CalcType.GGA_Static: 'GGA Static'>, 'mp-1987838': <CalcType.GGA_Static: 'GGA Static'>}"
mp-1199714,Hg2 P10 H54 C22 O12 F12,0.1373,"{'mp-1199714': <CalcType.GGA_Structure_Optimization: 'GGA Structure Optimization'>, 'mp-1336432': <CalcType.GGA_Static: 'GGA Static'>}"
mp-1204218,Sb8 H24 C4 S4 Cl24 O24,2.6062000000000003,"{'mp-1204218': <CalcType.GGA_Structure_Optimization: 'GGA Structure Optimization'>, 'mp-1327344': <CalcType.GGA_Static: 'GGA Static'>, 'mp-1582960': <CalcType.GGA_NSCF_Line: 'GGA NSCF Line'>}"
mp-1204310,Ti2 H60 C20 S10 Cl4 O12,2.4561,"{'mp-1204310': <CalcType.GGA_Structure_Optimization: 'GGA Structure Optimization'>, 'mp-1334248': <CalcType.GGA_Static: 'GGA Static'>, 'mp-1846697': <CalcType.GGA_Static: 'GGA Static'>, 'mp-1629040': <CalcType.GGA_NSCF_Line: 'GGA NSCF Line'>}"
mp-1211023,Na2 Pd1 W6 S2 N2 O6,0.0,"{'mp-1211023': <CalcType.GGA_U_Structure_Optimization: 'GGA+U Structure Optimization'>, 'mp-1840843': <CalcType.GGA_U_Static: 'GGA+U Static'>}"
mp-1212583,H16 Pd1 C4 S4 N10 O6,1.6554000000000002,"{'mp-1212583': <CalcType.GGA_Structure_Optimization: 'GGA Structure Optimization'>, 'mp-1237703': <CalcType.GGA_Structure_Optimization: 'GGA Structure Optimization'>, 'mp-1362244': <CalcType.GGA_Static: 'GGA Static'>, 'mp-1821749': <CalcType.GGA_Static: 'GGA Static'>}"
mp-2229247,Mg1 Cu1 C2 S2 O6 F6,0.0,"{'mp-2229247': <CalcType.GGA_Static: 'GGA Static'>, 'mp-2229354': <CalcType.GGA_Structure_Optimization: 'GGA Structure Optimization'>}"
mp-1386711,Ga2 Ge4 H10 C2 N2 O12,0.0,"{'mp-1386711': <CalcType.GGA_Static: 'GGA Static'>, 'mp-1760680': <CalcType.GGA_NSCF_Uniform: 'GGA NSCF Uniform'>, 'mp-1628128': <CalcType.GGA_NSCF_Line: 'GGA NSCF Line'>, 'mp-2101781': <CalcType.GGA_NSCF_Line: 'GGA NSCF Line'>, 'mp-2310768': <CalcType.GGA_NSCF_Line: 'GGA NSCF Line'>}"
mp-553984,As2 P6 H36 C12 S12 O12,3.4417,"{'mp-669753': <CalcType.GGA_NSCF_Line: 'GGA NSCF Line'>, 'mp-659896': <CalcType.GGA_NSCF_Line: 'GGA NSCF Line'>, 'mp-656643': <CalcType.GGA_Static: 'GGA Static'>, 'mp-553984': <CalcType.GGA_Structure_Optimization: 'GGA Structure Optimization'>, 'mp-1328032': <CalcType.GGA_Static: 'GGA Static'>, 'mp-1846548': <CalcType.GGA_Static: 'GGA Static'>}"
mp-557010,Cd1 As2 S18 N12 O6 F12,2.195,"{'mp-711428': <CalcType.GGA_NSCF_Line: 'GGA NSCF Line'>, 'mp-694171': <CalcType.GGA_Static: 'GGA Static'>, 'mp-557010': <CalcType.GGA_Structure_Optimization: 'GGA Structure Optimization'>, 'mp-717393': <CalcType.GGA_NSCF_Line: 'GGA NSCF Line'>, 'mp-1359130': <CalcType.GGA_Static: 'GGA Static'>, 'mp-1847140': <CalcType.GGA_Static: 'GGA Static'>}"
mp-555028,Ag1 Sb1 Te6 S16 O6 F30,0.8025,"{'mp-740600': <CalcType.GGA_NSCF_Line: 'GGA NSCF Line'>, 'mp-728670': <CalcType.GGA_Static: 'GGA Static'>, 'mp-555028': <CalcType.GGA_Structure_Optimization: 'GGA Structure Optimization'>, 'mp-1351072': <CalcType.GGA_Static: 'GGA Static'>, 'mp-1685677': <CalcType.GGA_NSCF_Uniform: 'GGA NSCF Uniform'>, 'mp-1850337': <CalcType.GGA_Static: 'GGA Static'>, 'mp-748086': <CalcType.GGA_NSCF_Line: 'GGA NSCF Line'>}"
mp-557494,Ag4 B4 Te16 C8 O24 F80,2.8918,"{'mp-705770': <CalcType.GGA_Static: 'GGA Static'>, 'mp-719337': <CalcType.GGA_NSCF_Line: 'GGA NSCF Line'>, 'mp-715886': <CalcType.GGA_NSCF_Line: 'GGA NSCF Line'>, 'mp-557494': <CalcType.GGA_Structure_Optimization: 'GGA Structure Optimization'>, 'mp-1366034': <CalcType.GGA_Static: 'GGA Static'>}"
mp-699459,Cs2 Li2 H8 S4 N4 O12,5.4996,"{'mp-740262': <CalcType.GGA_NSCF_Line: 'GGA NSCF Line'>, 'mp-726687': <CalcType.GGA_Static: 'GGA Static'>, 'mp-699459': <CalcType.GGA_Structure_Optimization: 'GGA Structure Optimization'>, 'mp-1411905': <CalcType.GGA_Static: 'GGA Static'>, 'mp-1819237': <CalcType.GGA_Static: 'GGA Static'>}"
mp-699447,Rb4 Li4 H16 S8 N8 O24,5.3729,"{'mp-699447': <CalcType.GGA_Structure_Optimization: 'GGA Structure Optimization'>, 'mp-742917': <CalcType.GGA_NSCF_Line: 'GGA NSCF Line'>, 'mp-731809': <CalcType.GGA_Static: 'GGA Static'>, 'mp-1357491': <CalcType.GGA_Static: 'GGA Static'>, 'mp-1908493': <CalcType.GGA_Static: 'GGA Static'>, 'mp-750297': <CalcType.GGA_NSCF_Line: 'GGA NSCF Line'>}"
mp-1219608,Rb1 La1 Ti1 Nb1 O6 F1,1.0761,"{'mp-1219608': <CalcType.GGA_Structure_Optimization: 'GGA Structure Optimization'>, 'mp-1391893': <CalcType.GGA_Static: 'GGA Static'>, 'mp-1743831': <CalcType.GGA_NSCF_Uniform: 'GGA NSCF Uniform'>, 'mp-1779280': <CalcType.GGA_Static: 'GGA Static'>, 'mp-1586674': <CalcType.GGA_NSCF_Line: 'GGA NSCF Line'>, 'mp-2099263': <CalcType.GGA_NSCF_Line: 'GGA NSCF Line'>, 'mp-2302283': <CalcType.GGA_NSCF_Line: 'GGA NSCF Line'>}"
mp-1219604,Rb1 Pr1 Ti1 Nb1 O6 F1,0.9506000000000001,"{'mp-1219604': <CalcType.GGA_Structure_Optimization: 'GGA Structure Optimization'>, 'mp-1444869': <CalcType.GGA_Static: 'GGA Static'>, 'mp-1744463': <CalcType.GGA_NSCF_Uniform: 'GGA NSCF Uniform'>, 'mp-1778862': <CalcType.GGA_Static: 'GGA Static'>, 'mp-1586626': <CalcType.GGA_NSCF_Line: 'GGA NSCF Line'>, 'mp-2099019': <CalcType.GGA_NSCF_Line: 'GGA NSCF Line'>, 'mp-2302225': <CalcType.GGA_NSCF_Line: 'GGA NSCF Line'>}"
mp-2229452,Sr4 Mg1 Mn2 Cu2 S2 O6,0.0,{'mp-2229452': <CalcType.GGA_U_Structure_Optimization: 'GGA+U Structure Optimization'>}
mp-2229142,Sr4 Mg1 V2 Fe2 As2 O6,0.0,{'mp-2229142': <CalcType.GGA_U_Structure_Optimization: 'GGA+U Structure Optimization'>}
mp-2229607,Sr4 Mg1 V2 Fe2 As2 O6,0.0,{'mp-2229607': <CalcType.GGA_U_Structure_Optimization: 'GGA+U Structure Optimization'>}
mp-1202069,Fe8 P8 N8 Cl8 O24 F12,0.0,"{'mp-1202069': <CalcType.GGA_U_Structure_Optimization: 'GGA+U Structure Optimization'>, 'mp-1350562': <CalcType.GGA_U_Static: 'GGA+U Static'>, 'mp-1851509': <CalcType.GGA_U_Static: 'GGA+U Static'>}"
mp-2226471,Cs2 Mg1 Mn1 V2 Cl2 O6,1.487999999999999,"{'mp-2226471': <CalcType.GGA_U_Static: 'GGA+U Static'>, 'mp-2226473': <CalcType.GGA_U_Structure_Optimization: 'GGA+U Structure Optimization'>}"
mp-2228502,Cs2 Mg1 Mn1 V2 Br2 O6,0.0,"{'mp-2228502': <CalcType.GGA_U_Structure_Optimization: 'GGA+U Structure Optimization'>, 'mp-2228557': <CalcType.GGA_U_Static: 'GGA+U Static'>}"
mp-697127,K6 H2 Pd2 S4 Cl4 O12,2.0652,"{'mp-697127': <CalcType.GGA_Structure_Optimization: 'GGA Structure Optimization'>, 'mp-731919': <CalcType.GGA_Static: 'GGA Static'>, 'mp-742957': <CalcType.GGA_NSCF_Line: 'GGA NSCF Line'>, 'mp-1384293': <CalcType.GGA_Static: 'GGA Static'>, 'mp-1734707': <CalcType.GGA_NSCF_Uniform: 'GGA NSCF Uniform'>, 'mp-1937164': <CalcType.GGA_Static: 'GGA Static'>, 'mp-750302': <CalcType.GGA_NSCF_Line: 'GGA NSCF Line'>, 'mp-1622974': <CalcType.GGA_NSCF_Line: 'GGA NSCF Line'>, 'mp-2114472': <CalcType.GGA_NSCF_Line: 'GGA NSCF Line'>, 'mp-2307710': <CalcType.GGA_NSCF_Line: 'GGA NSCF Line'>}"
mp-706983,K6 H2 Pt2 S4 Cl4 O12,3.0173,"{'mp-733168': <CalcType.GGA_NSCF_Line: 'GGA NSCF Line'>, 'mp-706983': <CalcType.GGA_Structure_Optimization: 'GGA Structure Optimization'>, 'mp-728523': <CalcType.GGA_Static: 'GGA Static'>, 'mp-1118006': <CalcType.GGA_DFPT_Dielectric: 'GGA DFPT Dielectric'>, 'mp-1390752': <CalcType.GGA_Static: 'GGA Static'>, 'mp-1754730': <CalcType.GGA_NSCF_Uniform: 'GGA NSCF Uniform'>, 'mp-1884058': <CalcType.GGA_Static: 'GGA Static'>, 'mp-737664': <CalcType.GGA_NSCF_Line: 'GGA NSCF Line'>, 'mp-1637240': <CalcType.GGA_NSCF_Line: 'GGA NSCF Line'>, 'mp-2109442': <CalcType.GGA_NSCF_Line: 'GGA NSCF Line'>, 'mp-2306902': <CalcType.GGA_NSCF_Line: 'GGA NSCF Line'>}"
mp-1233942,Ba6 Mg1 Sc2 C2 O6 F14,0.0,{'mp-1233942': <CalcType.GGA_Structure_Optimization: 'GGA Structure Optimization'>}
mp-699460,K2 Li2 H8 S4 N4 O12,5.4928,"{'mp-726685': <CalcType.GGA_Static: 'GGA Static'>, 'mp-699460': <CalcType.GGA_Structure_Optimization: 'GGA Structure Optimization'>, 'mp-860532': <CalcType.GGA_NSCF_Line: 'GGA NSCF Line'>, 'mp-1401394': <CalcType.GGA_Static: 'GGA Static'>, 'mp-1842178': <CalcType.GGA_Static: 'GGA Static'>}"
mp-757310,Zn2 P4 H28 C4 N12 O12,5.0041,"{'mp-757310': <CalcType.GGA_Structure_Optimization: 'GGA Structure Optimization'>, 'mp-850601': <CalcType.GGA_Static: 'GGA Static'>, 'mp-851364': <CalcType.GGA_NSCF_Line: 'GGA NSCF Line'>, 'mp-1355568': <CalcType.GGA_Static: 'GGA Static'>, 'mp-1877139': <CalcType.GGA_Static: 'GGA Static'>, 'mp-853413': <CalcType.GGA_NSCF_Line: 'GGA NSCF Line'>}"
mp-2240253,Sr1 La1 Mg1 Nb1 Zn1 O6,0.0,{'mp-2240253': <CalcType.GGA_Structure_Optimization: 'GGA Structure Optimization'>}
mp-1234212,Ba6 Mg1 Sc2 C2 O6 F14,4.0884,{'mp-1234212': <CalcType.GGA_Structure_Optimization: 'GGA Structure Optimization'>}
mp-562114,V8 Co4 H16 C16 N8 O24,2.1803,"{'mp-679588': <CalcType.GGA_U_NSCF_Line: 'GGA+U NSCF Line'>, 'mp-603725': <CalcType.GGA_U_Structure_Optimization: 'GGA+U Structure Optimization'>, 'mp-664575': <CalcType.GGA_U_Static: 'GGA+U Static'>, 'mp-562114': <CalcType.GGA_Structure_Optimization: 'GGA Structure Optimization'>, 'mp-562831': <CalcType.GGA_Structure_Optimization: 'GGA Structure Optimization'>, 'mp-1351088': <CalcType.GGA_U_Static: 'GGA+U Static'>, 'mp-1894229': <CalcType.GGA_U_Static: 'GGA+U Static'>}"
mp-1179600,Zn4 H64 C16 S16 N40 O24,1.2976,{'mp-1179600': <CalcType.GGA_Structure_Optimization: 'GGA Structure Optimization'>}
mp-706601,Zn4 H64 C16 S16 N40 O24,0.202299999999999,"{'mp-939578': <CalcType.GGA_Static: 'GGA Static'>, 'mp-1002318': <CalcType.GGA_Static: 'GGA Static'>, 'mp-1003824': <CalcType.GGA_NSCF_Line: 'GGA NSCF Line'>, 'mp-706601': <CalcType.GGA_Structure_Optimization: 'GGA Structure Optimization'>, 'mp-1338041': <CalcType.GGA_Static: 'GGA Static'>}"
mp-1233960,Ba6 Mg1 Sc2 C2 O6 F14,1.0838,{'mp-1233960': <CalcType.GGA_Structure_Optimization: 'GGA Structure Optimization'>}
mp-1234262,Ba6 Mg1 Sc2 C2 O6 F14,0.8186999999999991,{'mp-1234262': <CalcType.GGA_Structure_Optimization: 'GGA Structure Optimization'>}
mp-1233740,Ba6 Mg1 Sc2 C2 O6 F14,1.3854,{'mp-1233740': <CalcType.GGA_Structure_Optimization: 'GGA Structure Optimization'>}
mp-2231619,Mg1 Zn2 Cu2 H6 Cl2 O6,0.36860000000000004,{'mp-2231619': <CalcType.GGA_Static: 'GGA Static'>}
mp-1198870,Cd8 H32 C8 S16 N16 O48,0.0,"{'mp-1198870': <CalcType.GGA_Structure_Optimization: 'GGA Structure Optimization'>, 'mp-1335389': <CalcType.GGA_Static: 'GGA Static'>}"
mp-1200387,Na8 Fe8 P8 H16 C16 O48,3.6274,"{'mp-1200387': <CalcType.GGA_U_Structure_Optimization: 'GGA+U Structure Optimization'>, 'mp-1325764': <CalcType.GGA_U_Static: 'GGA+U Static'>}"
mp-1202889,Na8 Zn8 P8 H16 C16 O48,4.4997,"{'mp-1202889': <CalcType.GGA_Structure_Optimization: 'GGA Structure Optimization'>, 'mp-1237863': <CalcType.GGA_Structure_Optimization: 'GGA Structure Optimization'>, 'mp-1328495': <CalcType.GGA_Static: 'GGA Static'>, 'mp-1847973': <CalcType.GGA_Static: 'GGA Static'>, 'mp-1583781': <CalcType.GGA_NSCF_Line: 'GGA NSCF Line'>}"
mp-707509,Cu4 H24 Se8 N4 Cl4 O24,0.3301,"{'mp-707509': <CalcType.GGA_Structure_Optimization: 'GGA Structure Optimization'>, 'mp-1002335': <CalcType.GGA_Static: 'GGA Static'>, 'mp-1003949': <CalcType.GGA_NSCF_Line: 'GGA NSCF Line'>, 'mp-1049319': <CalcType.GGA_NSCF_Line: 'GGA NSCF Line'>, 'mp-1049177': <CalcType.GGA_Static: 'GGA Static'>, 'mp-1354555': <CalcType.GGA_Static: 'GGA Static'>, 'mp-1897349': <CalcType.GGA_Static: 'GGA Static'>, 'mp-1009302': <CalcType.GGA_NSCF_Line: 'GGA NSCF Line'>}"
mp-728693,Co4 Ni4 H48 C16 N16 O24,2.8263,"{'mp-744562': <CalcType.GGA_U_Structure_Optimization: 'GGA+U Structure Optimization'>, 'mp-818447': <CalcType.GGA_U_Static: 'GGA+U Static'>, 'mp-824350': <CalcType.GGA_U_NSCF_Line: 'GGA+U NSCF Line'>, 'mp-728693': <CalcType.GGA_Static: 'GGA Static'>, 'mp-833780': <CalcType.GGA_Static: 'GGA Static'>, 'mp-840788': <CalcType.GGA_NSCF_Line: 'GGA NSCF Line'>, 'mp-1335427': <CalcType.GGA_U_Static: 'GGA+U Static'>}"
mp-1195446,Co2 H48 C12 Br4 N8 O12,2.5201000000000002,"{'mp-1195446': <CalcType.GGA_U_Structure_Optimization: 'GGA+U Structure Optimization'>, 'mp-1334602': <CalcType.GGA_U_Static: 'GGA+U Static'>, 'mp-1851078': <CalcType.GGA_U_Static: 'GGA+U Static'>, 'mp-1629370': <CalcType.GGA_U_NSCF_Line: 'GGA+U NSCF Line'>}"
mp-1220925,Na2 Pr2 Ti2 Nb2 O12 F2,2.7726,"{'mp-1220925': <CalcType.GGA_Structure_Optimization: 'GGA Structure Optimization'>, 'mp-1366653': <CalcType.GGA_Static: 'GGA Static'>, 'mp-1934843': <CalcType.GGA_Static: 'GGA Static'>}"
mp-1221114,Na2 Ce2 Ti2 Nb2 O12 F2,0.199799999999999,"{'mp-1221114': <CalcType.GGA_Structure_Optimization: 'GGA Structure Optimization'>, 'mp-1370025': <CalcType.GGA_Static: 'GGA Static'>, 'mp-1874058': <CalcType.GGA_Static: 'GGA Static'>}"
mp-1221023,Na2 Gd2 Ti2 Nb2 O12 F2,0.0,"{'mp-1221023': <CalcType.GGA_Structure_Optimization: 'GGA Structure Optimization'>, 'mp-1377727': <CalcType.GGA_Static: 'GGA Static'>, 'mp-1682516': <CalcType.GGA_NSCF_Uniform: 'GGA NSCF Uniform'>, 'mp-1773235': <CalcType.GGA_Static: 'GGA Static'>}"
mp-1220733,Na2 Y2 Ti2 Nb2 O12 F2,2.773599999999999,"{'mp-1220733': <CalcType.GGA_Structure_Optimization: 'GGA Structure Optimization'>, 'mp-1332939': <CalcType.GGA_Static: 'GGA Static'>, 'mp-1863599': <CalcType.GGA_Static: 'GGA Static'>}"
mp-1221057,Na2 Eu2 Ti2 Nb2 O12 F2,0.0,"{'mp-1221057': <CalcType.GGA_Structure_Optimization: 'GGA Structure Optimization'>, 'mp-1342351': <CalcType.GGA_Static: 'GGA Static'>, 'mp-1682521': <CalcType.GGA_NSCF_Uniform: 'GGA NSCF Uniform'>, 'mp-1928404': <CalcType.GGA_Static: 'GGA Static'>}"
mp-1220995,Na2 Nd2 Ti2 Nb2 O12 F2,2.768299999999999,"{'mp-1220995': <CalcType.GGA_Structure_Optimization: 'GGA Structure Optimization'>, 'mp-1368894': <CalcType.GGA_Static: 'GGA Static'>, 'mp-1865242': <CalcType.GGA_Static: 'GGA Static'>}"
mp-1233666,Ba6 Mg1 Sc2 C2 O6 F14,0.9074000000000001,{'mp-1233666': <CalcType.GGA_Structure_Optimization: 'GGA Structure Optimization'>}
mp-2226719,Cs2 Mg1 Mn1 V2 Br2 O6,0.9732000000000001,"{'mp-2226719': <CalcType.GGA_U_Static: 'GGA+U Static'>, 'mp-2228267': <CalcType.GGA_U_Structure_Optimization: 'GGA+U Structure Optimization'>}"
mp-1193627,Na2 Ca2 Be4 B4 O12 F2,5.0458,"{'mp-1193627': <CalcType.GGA_Structure_Optimization: 'GGA Structure Optimization'>, 'mp-1382034': <CalcType.GGA_Static: 'GGA Static'>, 'mp-1675463': <CalcType.GGA_NSCF_Uniform: 'GGA NSCF Uniform'>, 'mp-1873093': <CalcType.GGA_Static: 'GGA Static'>, 'mp-1629874': <CalcType.GGA_NSCF_Line: 'GGA NSCF Line'>, 'mp-2138584': <CalcType.GGA_NSCF_Line: 'GGA NSCF Line'>, 'mp-2686049': <CalcType.GGA_NSCF_Line: 'GGA NSCF Line'>}"
mp-42599,Na4 Y4 Ti4 Nb4 O24 F4,2.8506,"{'mp-741077': <CalcType.GGA_NSCF_Line: 'GGA NSCF Line'>, 'mp-729661': <CalcType.GGA_Static: 'GGA Static'>, 'mp-42599': <CalcType.GGA_Structure_Optimization: 'GGA Structure Optimization'>, 'mp-1360630': <CalcType.GGA_Static: 'GGA Static'>, 'mp-1881565': <CalcType.GGA_Static: 'GGA Static'>, 'mp-748719': <CalcType.GGA_NSCF_Line: 'GGA NSCF Line'>}"
mp-42897,Na4 Pr4 Ti4 Nb4 O24 F4,2.9583,"{'mp-739592': <CalcType.GGA_NSCF_Line: 'GGA NSCF Line'>, 'mp-725154': <CalcType.GGA_Static: 'GGA Static'>, 'mp-42897': <CalcType.GGA_Structure_Optimization: 'GGA Structure Optimization'>, 'mp-1362361': <CalcType.GGA_Static: 'GGA Static'>, 'mp-1893097': <CalcType.GGA_Static: 'GGA Static'>, 'mp-747673': <CalcType.GGA_NSCF_Line: 'GGA NSCF Line'>}"
mp-43134,Na4 Nd4 Ti4 Nb4 O24 F4,2.9335,"{'mp-738769': <CalcType.GGA_NSCF_Line: 'GGA NSCF Line'>, 'mp-725139': <CalcType.GGA_Static: 'GGA Static'>, 'mp-43134': <CalcType.GGA_Structure_Optimization: 'GGA Structure Optimization'>, 'mp-1360090': <CalcType.GGA_Static: 'GGA Static'>, 'mp-1888720': <CalcType.GGA_Static: 'GGA Static'>, 'mp-746613': <CalcType.GGA_NSCF_Line: 'GGA NSCF Line'>}"
mp-43055,Na4 Ce4 Ti4 Nb4 O24 F4,0.034600000000000006,"{'mp-997667': <CalcType.GGA_Static: 'GGA Static'>, 'mp-43055': <CalcType.GGA_Structure_Optimization: 'GGA Structure Optimization'>, 'mp-1331762': <CalcType.GGA_Static: 'GGA Static'>, 'mp-1936179': <CalcType.GGA_Static: 'GGA Static'>}"
mp-1195389,P8 H64 Pb4 C24 N8 O24,3.2384,"{'mp-1195389': <CalcType.GGA_Structure_Optimization: 'GGA Structure Optimization'>, 'mp-1335250': <CalcType.GGA_Static: 'GGA Static'>}"
mp-42981,Na4 Gd4 Ti4 Nb4 O24 F4,2.418299999999999,"{'mp-739118': <CalcType.GGA_NSCF_Line: 'GGA NSCF Line'>, 'mp-724543': <CalcType.GGA_Static: 'GGA Static'>, 'mp-42981': <CalcType.GGA_Structure_Optimization: 'GGA Structure Optimization'>, 'mp-1362121': <CalcType.GGA_Static: 'GGA Static'>, 'mp-1773342': <CalcType.GGA_Static: 'GGA Static'>, 'mp-1880033': <CalcType.GGA_Static: 'GGA Static'>}"
mp-43048,Na4 Eu4 Ti4 Nb4 O24 F4,0.0,"{'mp-997665': <CalcType.GGA_Static: 'GGA Static'>, 'mp-43048': <CalcType.GGA_Structure_Optimization: 'GGA Structure Optimization'>, 'mp-1333702': <CalcType.GGA_Static: 'GGA Static'>, 'mp-1770053': <CalcType.GGA_Static: 'GGA Static'>, 'mp-1876412': <CalcType.GGA_Static: 'GGA Static'>}"
mp-1219593,Rb1 Nd1 Ti1 Nb1 O6 F1,1.8522999999999992,"{'mp-1219593': <CalcType.GGA_Structure_Optimization: 'GGA Structure Optimization'>, 'mp-1391988': <CalcType.GGA_Static: 'GGA Static'>, 'mp-1742405': <CalcType.GGA_NSCF_Uniform: 'GGA NSCF Uniform'>, 'mp-1832192': <CalcType.GGA_Static: 'GGA Static'>, 'mp-1586468': <CalcType.GGA_NSCF_Line: 'GGA NSCF Line'>, 'mp-2053431': <CalcType.GGA_NSCF_Line: 'GGA NSCF Line'>, 'mp-2301914': <CalcType.GGA_NSCF_Line: 'GGA NSCF Line'>}"
mp-1218475,Sr4 Mg1 Ti1 Fe2 As2 O6,0.0,"{'mp-1218475': <CalcType.GGA_U_Structure_Optimization: 'GGA+U Structure Optimization'>, 'mp-1332338': <CalcType.GGA_U_Static: 'GGA+U Static'>, 'mp-1770100': <CalcType.GGA_U_Static: 'GGA+U Static'>}"
mp-2232641,Sr4 Mg1 V2 Fe2 As2 O6,0.0,"{'mp-2232641': <CalcType.GGA_U_Static: 'GGA+U Static'>, 'mp-2233164': <CalcType.GGA_U_Structure_Optimization: 'GGA+U Structure Optimization'>}"
mp-2241433,Sr4 Mg1 Mn2 Cu2 S2 O6,0.0,{'mp-2241433': <CalcType.GGA_U_Structure_Optimization: 'GGA+U Structure Optimization'>}
mp-1176411,Na8 Li4 Fe4 P4 C4 O28,3.8533,"{'mp-1176411': <CalcType.GGA_U_Structure_Optimization: 'GGA+U Structure Optimization'>, 'mp-1348834': <CalcType.GGA_U_Static: 'GGA+U Static'>, 'mp-1889770': <CalcType.GGA_U_Static: 'GGA+U Static'>}"