Material ID,Composition,Band Gap,Calc Types
mp-1177396,Li4 Mn3 V2 Cr1 P6 O24,0.5556000000000001,"{'mp-1177396': <CalcType.GGA_U_Structure_Optimization: 'GGA+U Structure Optimization'>, 'mp-1357729': <CalcType.GGA_U_Static: 'GGA+U Static'>, 'mp-1815897': <CalcType.GGA_U_Static: 'GGA+U Static'>}"
mp-1177231,Li4 V1 Cr2 Ni3 P6 O24,0.014499999999999002,"{'mp-1177231': <CalcType.GGA_U_Structure_Optimization: 'GGA+U Structure Optimization'>, 'mp-1353580': <CalcType.GGA_U_Static: 'GGA+U Static'>, 'mp-1939225': <CalcType.GGA_U_Static: 'GGA+U Static'>}"
mp-1177323,Li4 Nb1 V3 Cr2 P6 O24,0.29899999999999904,"{'mp-1177323': <CalcType.GGA_U_Structure_Optimization: 'GGA+U Structure Optimization'>, 'mp-1359361': <CalcType.GGA_U_Static: 'GGA+U Static'>, 'mp-1771304': <CalcType.GGA_U_Static: 'GGA+U Static'>, 'mp-1823788': <CalcType.GGA_U_Static: 'GGA+U Static'>}"
mp-1177412,Li4 Mn3 Fe2 Sn1 P6 O24,2.024599999999999,"{'mp-1177412': <CalcType.GGA_U_Structure_Optimization: 'GGA+U Structure Optimization'>, 'mp-1355770': <CalcType.GGA_U_Static: 'GGA+U Static'>, 'mp-1826131': <CalcType.GGA_U_Static: 'GGA+U Static'>}"
mp-1177457,Li4 Mn2 Fe3 Sn1 P6 O24,2.4669,"{'mp-1177457': <CalcType.GGA_U_Structure_Optimization: 'GGA+U Structure Optimization'>, 'mp-1359644': <CalcType.GGA_U_Static: 'GGA+U Static'>, 'mp-1685800': <CalcType.GGA_U_NSCF_Uniform: 'GGA+U NSCF Uniform'>, 'mp-1772874': <CalcType.GGA_U_Static: 'GGA+U Static'>, 'mp-1923168': <CalcType.GGA_U_Static: 'GGA+U Static'>}"
mp-1177299,Li4 Ti1 Fe2 Ni3 P6 O24,2.401099999999999,"{'mp-1177299': <CalcType.GGA_U_Structure_Optimization: 'GGA+U Structure Optimization'>, 'mp-1355325': <CalcType.GGA_U_Static: 'GGA+U Static'>, 'mp-1658922': <CalcType.GGA_U_Static: 'GGA+U Static'>, 'mp-1934830': <CalcType.GGA_U_Static: 'GGA+U Static'>}"
mp-1177494,Li4 Cr1 Fe3 Cu2 P6 O24,0.35799999999999904,"{'mp-1177494': <CalcType.GGA_U_Structure_Optimization: 'GGA+U Structure Optimization'>, 'mp-1354725': <CalcType.GGA_U_Static: 'GGA+U Static'>, 'mp-1816706': <CalcType.GGA_U_Static: 'GGA+U Static'>}"
mp-1177342,Li4 V3 Co1 Cu2 P6 O24,0.0,"{'mp-1177342': <CalcType.GGA_U_Structure_Optimization: 'GGA+U Structure Optimization'>, 'mp-1358138': <CalcType.GGA_U_Static: 'GGA+U Static'>, 'mp-1656415': <CalcType.GGA_U_Static: 'GGA+U Static'>}"
mp-1177427,Li4 Mn3 Nb1 Fe2 P6 O24,0.5375999999999991,"{'mp-1177427': <CalcType.GGA_U_Structure_Optimization: 'GGA+U Structure Optimization'>, 'mp-1361227': <CalcType.GGA_U_Static: 'GGA+U Static'>, 'mp-1656778': <CalcType.GGA_U_Static: 'GGA+U Static'>, 'mp-1932526': <CalcType.GGA_U_Static: 'GGA+U Static'>}"
mp-1177518,Li4 Mn2 Ni3 Sn1 P6 O24,0.49839999999999907,"{'mp-1177518': <CalcType.GGA_U_Structure_Optimization: 'GGA+U Structure Optimization'>, 'mp-1362355': <CalcType.GGA_U_Static: 'GGA+U Static'>, 'mp-1680696': <CalcType.GGA_U_NSCF_Uniform: 'GGA+U NSCF Uniform'>, 'mp-1770882': <CalcType.GGA_U_Static: 'GGA+U Static'>, 'mp-1818681': <CalcType.GGA_U_Static: 'GGA+U Static'>}"
mp-1177657,Li4 Cr1 Fe3 Sn2 P6 O24,1.8994,"{'mp-1177657': <CalcType.GGA_U_Structure_Optimization: 'GGA+U Structure Optimization'>, 'mp-1360864': <CalcType.GGA_U_Static: 'GGA+U Static'>, 'mp-1874859': <CalcType.GGA_U_Static: 'GGA+U Static'>}"
mp-1203355,K4 Na4 Al24 Si24 H16 O96,4.4605999999999995,"{'mp-1203355': <CalcType.GGA_Structure_Optimization: 'GGA Structure Optimization'>, 'mp-1334510': <CalcType.GGA_Static: 'GGA Static'>}"
mp-1223575,K1 Na1 Ca1 Si8 Ni5 O24,0.46030000000000004,"{'mp-1223575': <CalcType.GGA_U_Structure_Optimization: 'GGA+U Structure Optimization'>, 'mp-1815215': <CalcType.GGA_U_Static: 'GGA+U Static'>}"
mp-1223921,K2 V1 Co6 Cu2 As5 O24,0.4375,"{'mp-1223921': <CalcType.GGA_U_Structure_Optimization: 'GGA+U Structure Optimization'>, 'mp-1333282': <CalcType.GGA_U_Static: 'GGA+U Static'>, 'mp-1660027': <CalcType.GGA_U_Static: 'GGA+U Static'>, 'mp-1871551': <CalcType.GGA_U_Static: 'GGA+U Static'>, 'mp-1679951': <CalcType.GGA_U_NSCF_Uniform: 'GGA+U NSCF Uniform'>}"
mp-1223917,K2 Ca1 Mg5 Si8 H2 O24,4.401999999999999,"{'mp-1223917': <CalcType.GGA_Structure_Optimization: 'GGA Structure Optimization'>, 'mp-1356005': <CalcType.GGA_Static: 'GGA Static'>, 'mp-1823914': <CalcType.GGA_Static: 'GGA Static'>}"
mp-1223601,K1 Na1 Sr1 Mg5 Si8 O24,3.354599999999999,"{'mp-1223601': <CalcType.GGA_Structure_Optimization: 'GGA Structure Optimization'>, 'mp-1824251': <CalcType.GGA_Static: 'GGA Static'>}"
mp-1223618,K1 Na1 Ca1 Co5 Si8 O24,0.8687,"{'mp-1223618': <CalcType.GGA_U_Structure_Optimization: 'GGA+U Structure Optimization'>, 'mp-1872158': <CalcType.GGA_U_Static: 'GGA+U Static'>}"
mp-1222758,Mg3 V6 Cd2 Cu3 Pb1 O24,1.6862,"{'mp-1222758': <CalcType.GGA_U_Structure_Optimization: 'GGA+U Structure Optimization'>, 'mp-1380708': <CalcType.GGA_U_Static: 'GGA+U Static'>, 'mp-1658495': <CalcType.GGA_U_Static: 'GGA+U Static'>, 'mp-1930587': <CalcType.GGA_U_Static: 'GGA+U Static'>, 'mp-1680699': <CalcType.GGA_U_NSCF_Uniform: 'GGA+U NSCF Uniform'>}"
mp-1223552,K1 Na1 Ca1 Mg5 Si8 O24,0.0007000000000000001,"{'mp-1223552': <CalcType.GGA_Structure_Optimization: 'GGA Structure Optimization'>, 'mp-1931150': <CalcType.GGA_Static: 'GGA Static'>, 'mp-2898737': <CalcType.r2SCAN_Structure_Optimization: 'r2SCAN Structure Optimization'>}"
mp-1233189,Mg1 V1 Cr2 Fe3 P6 O24,0.025999999999999003,"{'mp-1233189': <CalcType.GGA_U_Structure_Optimization: 'GGA+U Structure Optimization'>, 'mp-2216753': <CalcType.GGA_U_Static: 'GGA+U Static'>}"
mp-1233346,Mg1 Mn3 V1 Cr2 P6 O24,0.956299999999999,"{'mp-1233346': <CalcType.GGA_U_Structure_Optimization: 'GGA+U Structure Optimization'>, 'mp-2217017': <CalcType.GGA_U_Static: 'GGA+U Static'>}"
mp-1233545,Mg1 Fe3 Ni2 Sb1 P6 O24,0.8784000000000001,"{'mp-1233545': <CalcType.GGA_U_Structure_Optimization: 'GGA+U Structure Optimization'>, 'mp-2216730': <CalcType.GGA_U_Static: 'GGA+U Static'>}"
mp-1233400,Mg1 V1 Cr2 Fe3 P6 O24,0.8822999999999991,"{'mp-1233400': <CalcType.GGA_U_Structure_Optimization: 'GGA+U Structure Optimization'>, 'mp-2216761': <CalcType.GGA_U_Static: 'GGA+U Static'>, 'mp-2220392': <CalcType.GGA_U_Structure_Optimization: 'GGA+U Structure Optimization'>, 'mp-2220423': <CalcType.GGA_U_Static: 'GGA+U Static'>}"
mp-1233042,Mg1 Co6 Ag2 P6 H4 O24,0.0039000000000000003,{'mp-1233042': <CalcType.GGA_U_Structure_Optimization: 'GGA+U Structure Optimization'>}
mp-1234260,Mg1 Mn3 V1 Cr2 P6 O24,0.2616,"{'mp-1234260': <CalcType.GGA_U_Structure_Optimization: 'GGA+U Structure Optimization'>, 'mp-2216978': <CalcType.GGA_U_Static: 'GGA+U Static'>, 'mp-2220605': <CalcType.GGA_U_Structure_Optimization: 'GGA+U Structure Optimization'>, 'mp-2220431': <CalcType.GGA_U_Static: 'GGA+U Static'>}"
mp-1233823,Mg1 Fe3 Co2 Sb1 P6 O24,0.0441,"{'mp-1233823': <CalcType.GGA_U_Structure_Optimization: 'GGA+U Structure Optimization'>, 'mp-2216892': <CalcType.GGA_U_Static: 'GGA+U Static'>}"
mp-1233991,Mg1 Fe3 Ni2 Sb1 P6 O24,1.5014,"{'mp-1233991': <CalcType.GGA_U_Structure_Optimization: 'GGA+U Structure Optimization'>, 'mp-2216741': <CalcType.GGA_U_Static: 'GGA+U Static'>}"
mp-1234147,Mg1 Ti3 Fe2 Co1 P6 O24,0.0,"{'mp-1234147': <CalcType.GGA_U_Structure_Optimization: 'GGA+U Structure Optimization'>, 'mp-2216756': <CalcType.GGA_U_Static: 'GGA+U Static'>}"
mp-1233973,Mg1 V1 Cr2 Fe3 P6 O24,0.3043,"{'mp-1233973': <CalcType.GGA_U_Structure_Optimization: 'GGA+U Structure Optimization'>, 'mp-2216802': <CalcType.GGA_U_Static: 'GGA+U Static'>, 'mp-2220223': <CalcType.GGA_U_Structure_Optimization: 'GGA+U Structure Optimization'>, 'mp-2220231': <CalcType.GGA_U_Static: 'GGA+U Static'>}"
mp-1234159,Mg1 Mn3 V1 Cr2 P6 O24,0.008199999999999001,"{'mp-1234159': <CalcType.GGA_U_Structure_Optimization: 'GGA+U Structure Optimization'>, 'mp-2216916': <CalcType.GGA_U_Static: 'GGA+U Static'>, 'mp-2220308': <CalcType.GGA_U_Structure_Optimization: 'GGA+U Structure Optimization'>, 'mp-2220452': <CalcType.GGA_U_Static: 'GGA+U Static'>}"
mp-1234376,Mg1 Ti3 Fe2 Co1 P6 O24,0.015299999999999002,"{'mp-1234376': <CalcType.GGA_U_Structure_Optimization: 'GGA+U Structure Optimization'>, 'mp-2216872': <CalcType.GGA_U_Static: 'GGA+U Static'>}"
mp-1234410,Mg1 Fe3 Co2 Sb1 P6 O24,1.3069,"{'mp-1234410': <CalcType.GGA_U_Structure_Optimization: 'GGA+U Structure Optimization'>, 'mp-2216917': <CalcType.GGA_U_Static: 'GGA+U Static'>}"
mp-1233627,Mg1 V1 Cr2 Fe3 P6 O24,0.010899999999999,"{'mp-1233627': <CalcType.GGA_U_Structure_Optimization: 'GGA+U Structure Optimization'>, 'mp-2216936': <CalcType.GGA_U_Static: 'GGA+U Static'>, 'mp-2220635': <CalcType.GGA_U_Static: 'GGA+U Static'>, 'mp-2220261': <CalcType.GGA_U_Structure_Optimization: 'GGA+U Structure Optimization'>}"
mp-1233847,Mg1 Co6 Ag2 P6 H4 O24,0.19480000000000003,{'mp-1233847': <CalcType.GGA_U_Structure_Optimization: 'GGA+U Structure Optimization'>}
mp-1234340,Mg1 V3 Co1 Sn2 P6 O24,0.12000000000000001,"{'mp-1234340': <CalcType.GGA_U_Structure_Optimization: 'GGA+U Structure Optimization'>, 'mp-2216998': <CalcType.GGA_U_Static: 'GGA+U Static'>}"
mp-1233845,Mg1 V3 Co1 Sn2 P6 O24,1.2066,"{'mp-1233845': <CalcType.GGA_U_Structure_Optimization: 'GGA+U Structure Optimization'>, 'mp-2216871': <CalcType.GGA_U_Static: 'GGA+U Static'>}"
mp-1234130,Mg1 Ti3 Fe2 Co1 P6 O24,0.133099999999999,"{'mp-1234130': <CalcType.GGA_U_Structure_Optimization: 'GGA+U Structure Optimization'>, 'mp-2216942': <CalcType.GGA_U_Static: 'GGA+U Static'>}"
mp-1234288,Rb4 Mg1 V4 Cu2 P4 O24,0.0,"{'mp-1234288': <CalcType.GGA_U_Structure_Optimization: 'GGA+U Structure Optimization'>, 'mp-2217055': <CalcType.GGA_U_Static: 'GGA+U Static'>}"
mp-1234372,Mg1 V3 Co1 Sn2 P6 O24,0.276499999999999,"{'mp-1234372': <CalcType.GGA_U_Structure_Optimization: 'GGA+U Structure Optimization'>, 'mp-1234557': <CalcType.GGA_U_Structure_Optimization: 'GGA+U Structure Optimization'>, 'mp-2216767': <CalcType.GGA_U_Static: 'GGA+U Static'>, 'mp-2216913': <CalcType.GGA_U_Static: 'GGA+U Static'>}"
mp-1234391,Mg1 V3 Co1 Sn2 P6 O24,1.128599999999999,{'mp-1234391': <CalcType.GGA_U_Structure_Optimization: 'GGA+U Structure Optimization'>}
mp-1234744,Mg1 Mn3 V1 Cr2 P6 O24,0.206799999999999,"{'mp-1234744': <CalcType.GGA_U_Structure_Optimization: 'GGA+U Structure Optimization'>, 'mp-2216930': <CalcType.GGA_U_Static: 'GGA+U Static'>}"
mp-1234917,Mg1 V1 Cr2 Fe3 P6 O24,1.1895,"{'mp-1234917': <CalcType.GGA_U_Structure_Optimization: 'GGA+U Structure Optimization'>, 'mp-2216789': <CalcType.GGA_U_Static: 'GGA+U Static'>, 'mp-2221167': <CalcType.GGA_U_Static: 'GGA+U Static'>, 'mp-2221168': <CalcType.GGA_U_Structure_Optimization: 'GGA+U Structure Optimization'>}"
mp-1234958,Mg1 Ti3 Fe2 Co1 P6 O24,0.061399999999999004,"{'mp-1234958': <CalcType.GGA_U_Structure_Optimization: 'GGA+U Structure Optimization'>, 'mp-2216889': <CalcType.GGA_U_Static: 'GGA+U Static'>}"
mp-1234624,Mg1 Ti3 Fe2 Co1 P6 O24,0.032599999999999005,"{'mp-1234624': <CalcType.GGA_U_Structure_Optimization: 'GGA+U Structure Optimization'>, 'mp-2216954': <CalcType.GGA_U_Static: 'GGA+U Static'>}"
mp-1234694,Mg1 Co6 Ag2 P6 H4 O24,0.0,{'mp-1234694': <CalcType.GGA_U_Structure_Optimization: 'GGA+U Structure Optimization'>}
mp-1234713,Rb4 Mg1 V4 Cu2 P4 O24,0.0,"{'mp-1234713': <CalcType.GGA_U_Structure_Optimization: 'GGA+U Structure Optimization'>, 'mp-2216859': <CalcType.GGA_U_Static: 'GGA+U Static'>}"
mp-1234442,Mg1 V3 Co1 Sn2 P6 O24,0.025399999999999003,"{'mp-1234442': <CalcType.GGA_U_Structure_Optimization: 'GGA+U Structure Optimization'>, 'mp-2216734': <CalcType.GGA_U_Static: 'GGA+U Static'>}"
mp-1234587,Mg1 V3 Co1 Sn2 P6 O24,0.918,"{'mp-1234587': <CalcType.GGA_U_Structure_Optimization: 'GGA+U Structure Optimization'>, 'mp-2217024': <CalcType.GGA_U_Static: 'GGA+U Static'>}"
mp-1234730,Mg1 Co6 Ag2 P6 H4 O24,1.0509,{'mp-1234730': <CalcType.GGA_U_Structure_Optimization: 'GGA+U Structure Optimization'>}
mp-1234827,Mg1 Mn3 V1 Cr2 P6 O24,0.441899999999999,"{'mp-1234827': <CalcType.GGA_U_Structure_Optimization: 'GGA+U Structure Optimization'>, 'mp-2217060': <CalcType.GGA_U_Static: 'GGA+U Static'>, 'mp-2220633': <CalcType.GGA_U_Structure_Optimization: 'GGA+U Structure Optimization'>, 'mp-2220267': <CalcType.GGA_U_Static: 'GGA+U Static'>}"
mp-1234893,Mg1 V3 Co1 Sn2 P6 O24,0.8653000000000001,"{'mp-1234893': <CalcType.GGA_U_Structure_Optimization: 'GGA+U Structure Optimization'>, 'mp-2216888': <CalcType.GGA_U_Static: 'GGA+U Static'>}"
mp-1234478,Mg1 V1 Cr2 Fe3 P6 O24,0.0548,"{'mp-1234478': <CalcType.GGA_U_Structure_Optimization: 'GGA+U Structure Optimization'>, 'mp-2217027': <CalcType.GGA_U_Static: 'GGA+U Static'>}"
mp-1234723,Mg1 Fe3 Co2 Sb1 P6 O24,0.0,"{'mp-1234723': <CalcType.GGA_U_Structure_Optimization: 'GGA+U Structure Optimization'>, 'mp-2216979': <CalcType.GGA_U_Static: 'GGA+U Static'>}"
mp-1234654,Mg1 V3 Co1 Sn2 P6 O24,0.0776,"{'mp-1234654': <CalcType.GGA_U_Structure_Optimization: 'GGA+U Structure Optimization'>, 'mp-2216898': <CalcType.GGA_U_Static: 'GGA+U Static'>}"
mp-1234777,Mg1 Co6 Ag2 P6 H4 O24,0.4047,{'mp-1234777': <CalcType.GGA_U_Structure_Optimization: 'GGA+U Structure Optimization'>}
mp-2216042,Mg1 V1 Cr2 Fe3 P6 O24,0.8139999999999991,"{'mp-2216951': <CalcType.GGA_U_Static: 'GGA+U Static'>, 'mp-2216042': <CalcType.GGA_U_Structure_Optimization: 'GGA+U Structure Optimization'>, 'mp-2220587': <CalcType.GGA_U_Structure_Optimization: 'GGA+U Structure Optimization'>, 'mp-2220435': <CalcType.GGA_U_Static: 'GGA+U Static'>}"
mp-2216000,Mg1 Fe3 Co2 Sb1 P6 O24,0.0,"{'mp-2216000': <CalcType.GGA_U_Structure_Optimization: 'GGA+U Structure Optimization'>, 'mp-2216783': <CalcType.GGA_U_Static: 'GGA+U Static'>}"
mp-2216298,Mg1 V3 Co1 Sn2 P6 O24,0.030499999999999004,"{'mp-2216298': <CalcType.GGA_U_Structure_Optimization: 'GGA+U Structure Optimization'>, 'mp-2217002': <CalcType.GGA_U_Static: 'GGA+U Static'>}"
mp-2216304,Mg1 Cr2 Fe3 Ni1 P6 O24,0.5038,"{'mp-2216304': <CalcType.GGA_U_Structure_Optimization: 'GGA+U Structure Optimization'>, 'mp-2216877': <CalcType.GGA_U_Static: 'GGA+U Static'>, 'mp-2220614': <CalcType.GGA_U_Structure_Optimization: 'GGA+U Structure Optimization'>, 'mp-2220627': <CalcType.GGA_U_Static: 'GGA+U Static'>, 'mp-2220629': <CalcType.GGA_U_Static: 'GGA+U Static'>, 'mp-2220285': <CalcType.GGA_U_Structure_Optimization: 'GGA+U Structure Optimization'>}"
mp-2216372,Mg1 Cr2 Fe3 Ni1 P6 O24,0.40280000000000005,"{'mp-2216372': <CalcType.GGA_U_Structure_Optimization: 'GGA+U Structure Optimization'>, 'mp-2216798': <CalcType.GGA_U_Static: 'GGA+U Static'>}"
mp-2216496,Mg1 Cr2 Fe3 Ni1 P6 O24,0.36260000000000003,"{'mp-2216496': <CalcType.GGA_U_Structure_Optimization: 'GGA+U Structure Optimization'>, 'mp-2216781': <CalcType.GGA_U_Static: 'GGA+U Static'>}"
mp-2712523,Na6 La9 Ta3 Si6 S12 O72,2.497899999999999,{'mp-2712523': <CalcType.GGA_Structure_Optimization: 'GGA Structure Optimization'>}
mp-2712526,Na9 Zn9 Sn3 P3 S15 O72,2.2449,{'mp-2712526': <CalcType.GGA_Structure_Optimization: 'GGA Structure Optimization'>}
mp-2712528,Na9 Hf3 Mg9 P3 S15 O72,4.185899999999999,{'mp-2712528': <CalcType.GGA_Structure_Optimization: 'GGA Structure Optimization'>}
mp-2712535,Na9 Ca6 Y6 P3 S15 O72,4.693099999999999,{'mp-2712535': <CalcType.GGA_Structure_Optimization: 'GGA Structure Optimization'>}
mp-2712527,Na6 Sc9 Ta3 Si6 S12 O72,2.411299999999999,{'mp-2712527': <CalcType.GGA_Structure_Optimization: 'GGA Structure Optimization'>}
mp-2712533,Na9 Mg6 Al6 P3 S15 O72,4.909899999999999,{'mp-2712533': <CalcType.GGA_Structure_Optimization: 'GGA Structure Optimization'>}
mp-2712529,Na18 Zn9 Ge3 P12 S6 O72,2.337199999999999,{'mp-2712529': <CalcType.GGA_Structure_Optimization: 'GGA Structure Optimization'>}
mp-2712530,Na18 Mg9 Ti3 Si6 S12 O72,1.0137,{'mp-2712530': <CalcType.GGA_Structure_Optimization: 'GGA Structure Optimization'>}
mp-2712531,Na6 Sc9 Nb3 Si6 S12 O72,1.7181000000000002,{'mp-2712531': <CalcType.GGA_Structure_Optimization: 'GGA Structure Optimization'>}
mp-2712522,Na9 Mg9 Ti3 P3 S15 O72,1.9732,{'mp-2712522': <CalcType.GGA_Structure_Optimization: 'GGA Structure Optimization'>}
mp-2712536,Na6 Ta3 Al9 P12 S6 O72,2.7516,{'mp-2712536': <CalcType.GGA_Structure_Optimization: 'GGA Structure Optimization'>}
mp-2712540,Na6 Zn3 Sn9 P12 S6 O72,1.7419,{'mp-2712540': <CalcType.GGA_Structure_Optimization: 'GGA Structure Optimization'>}
mp-2712543,Na6 Mg3 Zr9 Si6 S12 O72,2.1289,{'mp-2712543': <CalcType.GGA_Structure_Optimization: 'GGA Structure Optimization'>}
mp-2712597,Na18 Ca9 Ti3 P12 S6 O72,2.2019,{'mp-2712597': <CalcType.GGA_Structure_Optimization: 'GGA Structure Optimization'>}
mp-2712639,Na6 Sc9 Nb3 P12 S6 O72,2.050599999999999,{'mp-2712639': <CalcType.GGA_Structure_Optimization: 'GGA Structure Optimization'>}
mp-2712655,Na9 Mg6 Ga6 P3 S15 O72,3.448399999999999,{'mp-2712655': <CalcType.GGA_Structure_Optimization: 'GGA Structure Optimization'>}
mp-2712664,Na6 La9 Nb3 Si6 S12 O72,1.7794,{'mp-2712664': <CalcType.GGA_Structure_Optimization: 'GGA Structure Optimization'>}
mp-2712673,Na6 Zn3 Ge9 P12 S6 O72,1.5063,{'mp-2712673': <CalcType.GGA_Structure_Optimization: 'GGA Structure Optimization'>}
mp-2712537,Na18 Ca9 Hf3 P12 S6 O72,4.3002,{'mp-2712537': <CalcType.GGA_Structure_Optimization: 'GGA Structure Optimization'>}
mp-2712592,Na6 Hf9 Zn3 Si6 S12 O72,3.064,{'mp-2712592': <CalcType.GGA_Structure_Optimization: 'GGA Structure Optimization'>}
mp-2712601,Na18 Ca9 Si6 Ge3 S12 O72,1.714,{'mp-2712601': <CalcType.GGA_Structure_Optimization: 'GGA Structure Optimization'>}
mp-2712610,Na6 Zr9 Zn3 P12 S6 O72,3.3916,{'mp-2712610': <CalcType.GGA_Structure_Optimization: 'GGA Structure Optimization'>}
mp-2712620,Na6 Nb3 Ga9 Si6 S12 O72,1.735599999999999,{'mp-2712620': <CalcType.GGA_Structure_Optimization: 'GGA Structure Optimization'>}
mp-2712626,Na6 Ca3 Zr9 Si6 S12 O72,1.9857,{'mp-2712626': <CalcType.GGA_Structure_Optimization: 'GGA Structure Optimization'>}
mp-2712643,Na6 La9 Ta3 P12 S6 O72,2.9356,{'mp-2712643': <CalcType.GGA_Structure_Optimization: 'GGA Structure Optimization'>}
mp-2712653,Na18 Mg9 Ti3 P12 S6 O72,2.226,{'mp-2712653': <CalcType.GGA_Structure_Optimization: 'GGA Structure Optimization'>}
mp-2712554,Na6 Ta3 In9 Si6 S12 O72,1.955999999999999,{'mp-2712554': <CalcType.GGA_Structure_Optimization: 'GGA Structure Optimization'>}
mp-2712596,Na6 Zr9 Zn3 Si6 S12 O72,2.2676,{'mp-2712596': <CalcType.GGA_Structure_Optimization: 'GGA Structure Optimization'>}
mp-2712616,Na18 Zn9 Si6 Ge3 S12 O72,1.9646000000000001,{'mp-2712616': <CalcType.GGA_Structure_Optimization: 'GGA Structure Optimization'>}
mp-2712638,Na18 Mg9 Zr3 P12 S6 O72,3.926699999999999,{'mp-2712638': <CalcType.GGA_Structure_Optimization: 'GGA Structure Optimization'>}
mp-2712676,Na6 Mg3 Ge9 P12 S6 O72,1.517399999999999,{'mp-2712676': <CalcType.GGA_Structure_Optimization: 'GGA Structure Optimization'>}
mp-2712683,Na6 Mg3 Ti9 Si6 S12 O72,1.103899999999999,{'mp-2712683': <CalcType.GGA_Structure_Optimization: 'GGA Structure Optimization'>}
mp-2712564,Na6 Mg3 Zr9 P12 S6 O72,3.2937,{'mp-2712564': <CalcType.GGA_Structure_Optimization: 'GGA Structure Optimization'>}
mp-2712589,Na6 Hf9 Mg3 P12 S6 O72,3.939,{'mp-2712589': <CalcType.GGA_Structure_Optimization: 'GGA Structure Optimization'>}
mp-2712632,Na9 Zn6 Ga6 P3 S15 O72,3.2152,{'mp-2712632': <CalcType.GGA_Structure_Optimization: 'GGA Structure Optimization'>}
mp-2712651,Na18 Zn9 Si6 Sn3 S12 O72,2.0679,{'mp-2712651': <CalcType.GGA_Structure_Optimization: 'GGA Structure Optimization'>}
mp-2712663,Na6 Ta3 Ga9 Si6 S12 O72,2.1874000000000002,{'mp-2712663': <CalcType.GGA_Structure_Optimization: 'GGA Structure Optimization'>}
mp-2712669,Na6 Ca3 Sn9 P12 S6 O72,1.3010000000000002,{'mp-2712669': <CalcType.GGA_Structure_Optimization: 'GGA Structure Optimization'>}
mp-2712671,Na6 Ta3 Ga9 P12 S6 O72,2.9252000000000002,{'mp-2712671': <CalcType.GGA_Structure_Optimization: 'GGA Structure Optimization'>}
mp-2712569,Na6 Mg3 Si6 Sn9 S12 O72,0.39529999999999904,{'mp-2712569': <CalcType.GGA_Structure_Optimization: 'GGA Structure Optimization'>}
mp-2712607,Na18 Hf3 Mg9 P12 S6 O72,4.5179,{'mp-2712607': <CalcType.GGA_Structure_Optimization: 'GGA Structure Optimization'>}
mp-2712665,Na9 Zr3 Zn9 P3 S15 O72,3.5157,{'mp-2712665': <CalcType.GGA_Structure_Optimization: 'GGA Structure Optimization'>}