Material ID,Composition,Band Gap,Calc Types
mp-2715330,Na18 La6 Zr6 Si6 P12 O72,3.413699999999999,{'mp-2715330': <CalcType.GGA_Structure_Optimization: 'GGA Structure Optimization'>}
mp-2715309,Na36 Sc12 Ta12 Si24 P12 O144,3.2202,{'mp-2715309': <CalcType.GGA_Structure_Optimization: 'GGA Structure Optimization'>}
mp-2715321,Na18 Y6 Ta6 Si12 P6 O72,3.0037,{'mp-2715321': <CalcType.GGA_Structure_Optimization: 'GGA Structure Optimization'>}
mp-2715314,Na12 La4 Hf4 Si4 P8 O48,4.3251,{'mp-2715314': <CalcType.GGA_Structure_Optimization: 'GGA Structure Optimization'>}
mp-2715339,Na12 Zr4 Al4 Si4 P8 O48,4.1046,{'mp-2715339': <CalcType.GGA_Structure_Optimization: 'GGA Structure Optimization'>}
mp-2715345,Na12 Sc4 Ti4 Si4 P8 O48,2.2984,{'mp-2715345': <CalcType.GGA_Structure_Optimization: 'GGA Structure Optimization'>}
mp-2715340,Na12 In4 Si4 Ge4 P8 O48,1.9993,{'mp-2715340': <CalcType.GGA_Structure_Optimization: 'GGA Structure Optimization'>}
mp-2715357,Na18 La6 Ti6 Si6 P12 O72,1.8729,{'mp-2715357': <CalcType.GGA_Structure_Optimization: 'GGA Structure Optimization'>}
mp-2715377,Na12 Hf4 Sc4 Si4 P8 O48,4.736099999999999,{'mp-2715377': <CalcType.GGA_Structure_Optimization: 'GGA Structure Optimization'>}
mp-2715337,Na18 Sc6 Ti6 Si6 P12 O72,2.2291,{'mp-2715337': <CalcType.GGA_Structure_Optimization: 'GGA Structure Optimization'>}
mp-2715335,Na18 Nb6 Al6 Si12 P6 O72,2.5258000000000003,{'mp-2715335': <CalcType.GGA_Structure_Optimization: 'GGA Structure Optimization'>}
mp-2715369,Na18 Y6 Si6 Sn6 P12 O72,2.1199,{'mp-2715369': <CalcType.GGA_Structure_Optimization: 'GGA Structure Optimization'>}
mp-2715342,Na12 Hf4 Ga4 Si4 P8 O48,3.9648000000000003,{'mp-2715342': <CalcType.GGA_Structure_Optimization: 'GGA Structure Optimization'>}
mp-2715361,Na12 Ti4 Ga4 Si4 P8 O48,2.3465,{'mp-2715361': <CalcType.GGA_Structure_Optimization: 'GGA Structure Optimization'>}
mp-2715376,Na12 In4 Si4 Sn4 P8 O48,1.515699999999999,{'mp-2715376': <CalcType.GGA_Structure_Optimization: 'GGA Structure Optimization'>}
mp-2715355,Na18 Zr6 Sc6 Si6 P12 O72,4.096,{'mp-2715355': <CalcType.GGA_Structure_Optimization: 'GGA Structure Optimization'>}
mp-2715351,Na12 Al4 Si4 Ge4 P8 O48,2.8865,{'mp-2715351': <CalcType.GGA_Structure_Optimization: 'GGA Structure Optimization'>}
mp-2715386,Na18 Mg6 Nb6 Si6 P12 O72,1.9965000000000002,{'mp-2715386': <CalcType.GGA_Structure_Optimization: 'GGA Structure Optimization'>}
mp-2715381,Na36 Y12 Ta12 Si24 P12 O144,3.1691,{'mp-2715381': <CalcType.GGA_Structure_Optimization: 'GGA Structure Optimization'>}
mp-2715401,Na18 Ga6 Si6 Ge6 P12 O72,2.6199,{'mp-2715401': <CalcType.GGA_Structure_Optimization: 'GGA Structure Optimization'>}
mp-2715402,Na18 Hf6 Ga6 Si6 P12 O72,3.932299999999999,{'mp-2715402': <CalcType.GGA_Structure_Optimization: 'GGA Structure Optimization'>}
mp-2715387,Na18 Y6 Zr6 Si6 P12 O72,3.7403,{'mp-2715387': <CalcType.GGA_Structure_Optimization: 'GGA Structure Optimization'>}
mp-2715405,Na18 Ti6 Al6 Si6 P12 O72,2.5235000000000003,{'mp-2715405': <CalcType.GGA_Structure_Optimization: 'GGA Structure Optimization'>}
mp-2715388,Na18 Al6 Si6 Sn6 P12 O72,3.365999999999999,{'mp-2715388': <CalcType.GGA_Structure_Optimization: 'GGA Structure Optimization'>}
mp-2715398,Na12 La4 Zr4 Si4 P8 O48,3.7358000000000002,{'mp-2715398': <CalcType.GGA_Structure_Optimization: 'GGA Structure Optimization'>}
mp-2715408,Na18 La6 Hf6 Si6 P12 O72,3.94,{'mp-2715408': <CalcType.GGA_Structure_Optimization: 'GGA Structure Optimization'>}
mp-2715409,Na18 Hf6 Sc6 Si6 P12 O72,4.6269,{'mp-2715409': <CalcType.GGA_Structure_Optimization: 'GGA Structure Optimization'>}
mp-2715418,Na12 Ca4 Nb4 Si4 P8 O48,1.830099999999999,{'mp-2715418': <CalcType.GGA_Structure_Optimization: 'GGA Structure Optimization'>}
mp-2715432,Na18 Ca6 Ta6 Si6 P12 O72,2.4423,{'mp-2715432': <CalcType.GGA_Structure_Optimization: 'GGA Structure Optimization'>}
mp-2715447,Na18 Ta6 Zn6 Si6 P12 O72,2.596999999999999,{'mp-2715447': <CalcType.GGA_Structure_Optimization: 'GGA Structure Optimization'>}
mp-2715417,Na12 Y4 Zr4 Si4 P8 O48,3.9834,{'mp-2715417': <CalcType.GGA_Structure_Optimization: 'GGA Structure Optimization'>}
mp-2715433,Na18 In6 Si6 Sn6 P12 O72,2.4968,{'mp-2715433': <CalcType.GGA_Structure_Optimization: 'GGA Structure Optimization'>}
mp-2715414,Na12 Ta4 Zn4 Si4 P8 O48,2.539399999999998,{'mp-2715414': <CalcType.GGA_Structure_Optimization: 'GGA Structure Optimization'>}
mp-2715438,Na18 La6 Si6 Sn6 P12 O72,1.588499999999999,{'mp-2715438': <CalcType.GGA_Structure_Optimization: 'GGA Structure Optimization'>}
mp-2715431,Na18 In6 Si6 Ge6 P12 O72,2.108,{'mp-2715431': <CalcType.GGA_Structure_Optimization: 'GGA Structure Optimization'>}
mp-2715441,Na12 Nb4 Zn4 Si4 P8 O48,1.7483,{'mp-2715441': <CalcType.GGA_Structure_Optimization: 'GGA Structure Optimization'>}
mp-2715454,Na18 Nb6 Zn6 Si6 P12 O72,1.8371,{'mp-2715454': <CalcType.GGA_Structure_Optimization: 'GGA Structure Optimization'>}
mp-2715440,Na12 Y4 Si4 Sn4 P8 O48,2.212,{'mp-2715440': <CalcType.GGA_Structure_Optimization: 'GGA Structure Optimization'>}
mp-2715448,Na12 Ti4 In4 Si4 P8 O48,2.0824,{'mp-2715448': <CalcType.GGA_Structure_Optimization: 'GGA Structure Optimization'>}
mp-2715477,Na18 Hf6 Al6 Si6 P12 O72,4.521100000000001,{'mp-2715477': <CalcType.GGA_Structure_Optimization: 'GGA Structure Optimization'>}
mp-2715464,Na18 Zr6 Ga6 Si6 P12 O72,3.7636000000000003,{'mp-2715464': <CalcType.GGA_Structure_Optimization: 'GGA Structure Optimization'>}
mp-2715491,Na12 Mg4 Nb4 Si4 P8 O48,1.6990999999999992,{'mp-2715491': <CalcType.GGA_Structure_Optimization: 'GGA Structure Optimization'>}
mp-2715496,Na12 Zr4 Ga4 Si4 P8 O48,3.8371,{'mp-2715496': <CalcType.GGA_Structure_Optimization: 'GGA Structure Optimization'>}
mp-2715498,Na18 Zr6 Al6 Si6 P12 O72,4.2663,{'mp-2715498': <CalcType.GGA_Structure_Optimization: 'GGA Structure Optimization'>}
mp-2715501,Na18 Sc6 Si6 Sn6 P12 O72,2.7076000000000002,{'mp-2715501': <CalcType.GGA_Structure_Optimization: 'GGA Structure Optimization'>}
mp-2715486,Na18 Ga6 Si6 Sn6 P12 O72,3.117,{'mp-2715486': <CalcType.GGA_Structure_Optimization: 'GGA Structure Optimization'>}
mp-2715472,Na12 Zr4 Sc4 Si4 P8 O48,4.0744,{'mp-2715472': <CalcType.GGA_Structure_Optimization: 'GGA Structure Optimization'>}
mp-2715495,Na18 La6 Nb6 Si12 P6 O72,1.9971,{'mp-2715495': <CalcType.GGA_Structure_Optimization: 'GGA Structure Optimization'>}
mp-2715500,Na18 Nb6 Ga6 Si12 P6 O72,2.575599999999999,{'mp-2715500': <CalcType.GGA_Structure_Optimization: 'GGA Structure Optimization'>}
mp-2715499,Na12 La4 Ti4 Si4 P8 O48,2.065,{'mp-2715499': <CalcType.GGA_Structure_Optimization: 'GGA Structure Optimization'>}
mp-2715476,Na18 Mg6 Ta6 Si6 P12 O72,2.7617000000000003,{'mp-2715476': <CalcType.GGA_Structure_Optimization: 'GGA Structure Optimization'>}
mp-2715508,Na18 La6 Si6 Ge6 P12 O72,1.4129,{'mp-2715508': <CalcType.GGA_Structure_Optimization: 'GGA Structure Optimization'>}
mp-2715514,Na12 Sc4 Si4 Sn4 P8 O48,2.7910999999999992,{'mp-2715514': <CalcType.GGA_Structure_Optimization: 'GGA Structure Optimization'>}
mp-2715503,Na12 Sc4 Si4 Ge4 P8 O48,2.216199999999999,{'mp-2715503': <CalcType.GGA_Structure_Optimization: 'GGA Structure Optimization'>}
mp-2715521,Na24 Hf6 Sc6 Si12 P6 O72,4.1143,{'mp-2715521': <CalcType.GGA_Structure_Optimization: 'GGA Structure Optimization'>}
mp-2715526,Na6 Ta6 Si12 Ge6 S6 O72,3.2189,{'mp-2715526': <CalcType.GGA_Structure_Optimization: 'GGA Structure Optimization'>}
mp-2715510,Na36 Nb12 Al12 Si24 P12 O144,2.318599999999999,{'mp-2715510': <CalcType.GGA_Structure_Optimization: 'GGA Structure Optimization'>}
mp-2715517,Na12 Ti4 Al4 Si4 P8 O48,2.390799999999999,{'mp-2715517': <CalcType.GGA_Structure_Optimization: 'GGA Structure Optimization'>}
mp-2715522,Na24 Y6 Si12 Ge6 P6 O72,1.6323999999999992,{'mp-2715522': <CalcType.GGA_Structure_Optimization: 'GGA Structure Optimization'>}
mp-2715528,Na6 Ta6 Si12 Sn6 S6 O72,3.309699999999999,{'mp-2715528': <CalcType.GGA_Structure_Optimization: 'GGA Structure Optimization'>}
mp-2715505,Na18 Ti6 Ga6 Si6 P12 O72,2.4316,{'mp-2715505': <CalcType.GGA_Structure_Optimization: 'GGA Structure Optimization'>}
mp-2715512,Na12 Ga4 Si4 Ge4 P8 O48,2.6646,{'mp-2715512': <CalcType.GGA_Structure_Optimization: 'GGA Structure Optimization'>}
mp-2715564,Na6 Zr6 Zn6 P6 S12 O72,3.5023,{'mp-2715564': <CalcType.GGA_Structure_Optimization: 'GGA Structure Optimization'>}
mp-2715530,Na6 Ca6 Ge6 P6 S12 O72,0.6363999999999991,{'mp-2715530': <CalcType.GGA_Structure_Optimization: 'GGA Structure Optimization'>}
mp-2715568,Na6 Zr6 Ta6 Si6 P12 O72,3.326,{'mp-2715568': <CalcType.GGA_Structure_Optimization: 'GGA Structure Optimization'>}
mp-2715582,Na6 Zr6 Nb6 Si6 P12 O72,2.4983999999999993,{'mp-2715582': <CalcType.GGA_Structure_Optimization: 'GGA Structure Optimization'>}
mp-2715587,Na6 Nb6 Si12 Sn6 S6 O72,2.6549,{'mp-2715587': <CalcType.GGA_Structure_Optimization: 'GGA Structure Optimization'>}
mp-2715571,Na24 Y6 Zr6 Si12 P6 O72,3.945599999999999,{'mp-2715571': <CalcType.GGA_Structure_Optimization: 'GGA Structure Optimization'>}
mp-2715544,Na24 Y6 Ti6 Si12 P6 O72,2.174,{'mp-2715544': <CalcType.GGA_Structure_Optimization: 'GGA Structure Optimization'>}
mp-2715542,Na24 Ta6 Zn6 Si12 P6 O72,2.6805000000000003,{'mp-2715542': <CalcType.GGA_Structure_Optimization: 'GGA Structure Optimization'>}
mp-2715547,Na6 Zr6 Ta6 Si12 S6 O72,3.4013,{'mp-2715547': <CalcType.GGA_Structure_Optimization: 'GGA Structure Optimization'>}
mp-2715563,Na6 Nb6 Si6 Sn6 P12 O72,2.5558,{'mp-2715563': <CalcType.GGA_Structure_Optimization: 'GGA Structure Optimization'>}
mp-2715586,Na24 La6 Zr6 Si12 P6 O72,3.623999999999998,{'mp-2715586': <CalcType.GGA_Structure_Optimization: 'GGA Structure Optimization'>}
mp-2715675,Na6 Hf6 Ta6 Si6 P12 O72,3.3579,{'mp-2715675': <CalcType.GGA_Structure_Optimization: 'GGA Structure Optimization'>}
mp-2715597,Na24 Sc6 Si12 Ge6 P6 O72,2.3719,{'mp-2715597': <CalcType.GGA_Structure_Optimization: 'GGA Structure Optimization'>}
mp-2715650,Na6 Hf6 Ta6 Si12 S6 O72,3.4118,{'mp-2715650': <CalcType.GGA_Structure_Optimization: 'GGA Structure Optimization'>}
mp-2715628,Na6 Hf6 Nb6 Si6 P12 O72,2.555999999999999,{'mp-2715628': <CalcType.GGA_Structure_Optimization: 'GGA Structure Optimization'>}
mp-2715682,Na6 Ta6 Ti6 Si6 P12 O72,2.7369,{'mp-2715682': <CalcType.GGA_Structure_Optimization: 'GGA Structure Optimization'>}
mp-2715603,Na6 Ta6 Ti6 Si12 S6 O72,3.2534,{'mp-2715603': <CalcType.GGA_Structure_Optimization: 'GGA Structure Optimization'>}
mp-2715684,Na24 Y6 Si12 Sn6 P6 O72,2.293799999999999,{'mp-2715684': <CalcType.GGA_Structure_Optimization: 'GGA Structure Optimization'>}
mp-2715671,Na6 Ta6 Si6 Ge6 P12 O72,3.227699999999999,{'mp-2715671': <CalcType.GGA_Structure_Optimization: 'GGA Structure Optimization'>}
mp-2715612,Na6 Ta6 Si6 Sn6 P12 O72,3.3753,{'mp-2715612': <CalcType.GGA_Structure_Optimization: 'GGA Structure Optimization'>}
mp-2715643,Na24 La6 Si12 Sn6 P6 O72,1.697299999999999,{'mp-2715643': <CalcType.GGA_Structure_Optimization: 'GGA Structure Optimization'>}
mp-2715722,Na6 Hf6 Nb6 Si12 S6 O72,2.6159,{'mp-2715722': <CalcType.GGA_Structure_Optimization: 'GGA Structure Optimization'>}
mp-2715717,Na24 In6 Si12 Ge6 P6 O72,2.0972,{'mp-2715717': <CalcType.GGA_Structure_Optimization: 'GGA Structure Optimization'>}
mp-2715690,Na24 Hf6 Al6 Si12 P6 O72,4.203699999999999,{'mp-2715690': <CalcType.GGA_Structure_Optimization: 'GGA Structure Optimization'>}
mp-2715724,Na24 Ti6 Al6 Si12 P6 O72,2.582099999999999,{'mp-2715724': <CalcType.GGA_Structure_Optimization: 'GGA Structure Optimization'>}
mp-2715727,Na24 La6 Ti6 Si12 P6 O72,1.8904,{'mp-2715727': <CalcType.GGA_Structure_Optimization: 'GGA Structure Optimization'>}
mp-2715694,Na24 Mg6 Ta6 Si12 P6 O72,2.7792000000000003,{'mp-2715694': <CalcType.GGA_Structure_Optimization: 'GGA Structure Optimization'>}
mp-2715712,Na24 Ca6 Ta6 Si12 P6 O72,2.5673,{'mp-2715712': <CalcType.GGA_Structure_Optimization: 'GGA Structure Optimization'>}
mp-2715772,Na24 Ga6 Si12 Sn6 P6 O72,3.0958,{'mp-2715772': <CalcType.GGA_Structure_Optimization: 'GGA Structure Optimization'>}
mp-2715764,Na24 Mg6 Nb6 Si12 P6 O72,2.0213,{'mp-2715764': <CalcType.GGA_Structure_Optimization: 'GGA Structure Optimization'>}
mp-2715791,Na24 Zr6 In6 Si12 P6 O72,2.4837,{'mp-2715791': <CalcType.GGA_Structure_Optimization: 'GGA Structure Optimization'>}
mp-2715732,Na24 Ga6 Si12 Ge6 P6 O72,2.845399999999999,{'mp-2715732': <CalcType.GGA_Structure_Optimization: 'GGA Structure Optimization'>}
mp-2715754,Na24 Nb6 Zn6 Si12 P6 O72,1.7691999999999992,{'mp-2715754': <CalcType.GGA_Structure_Optimization: 'GGA Structure Optimization'>}
mp-2715738,Na6 Nb6 Si6 Ge6 P12 O72,2.7659000000000002,{'mp-2715738': <CalcType.GGA_Structure_Optimization: 'GGA Structure Optimization'>}
mp-2715756,Na24 La6 Hf6 Si12 P6 O72,3.5598,{'mp-2715756': <CalcType.GGA_Structure_Optimization: 'GGA Structure Optimization'>}
mp-2715734,Na6 Nb6 Si12 Ge6 S6 O72,2.8213,{'mp-2715734': <CalcType.GGA_Structure_Optimization: 'GGA Structure Optimization'>}
mp-2715751,Na6 Ca6 Hf6 P6 S12 O72,3.8097000000000003,{'mp-2715751': <CalcType.GGA_Structure_Optimization: 'GGA Structure Optimization'>}
mp-2715783,Na6 Ti6 Nb6 Si6 P12 O72,2.5741,{'mp-2715783': <CalcType.GGA_Structure_Optimization: 'GGA Structure Optimization'>}
mp-2715794,Na24 In6 Si12 Sn6 P6 O72,2.652699999999999,{'mp-2715794': <CalcType.GGA_Structure_Optimization: 'GGA Structure Optimization'>}
mp-2715804,Na6 Zr6 Nb6 Si12 S6 O72,2.588,{'mp-2715804': <CalcType.GGA_Structure_Optimization: 'GGA Structure Optimization'>}
mp-2715810,Na6 Ti6 Nb6 Si12 S6 O72,2.7588,{'mp-2715810': <CalcType.GGA_Structure_Optimization: 'GGA Structure Optimization'>}
mp-2716125,Na24 Zr6 Ga6 Si12 P6 O72,3.7298,{'mp-2716125': <CalcType.GGA_Structure_Optimization: 'GGA Structure Optimization'>}
mp-2716168,Na24 Sc6 Si12 Sn6 P6 O72,2.8185000000000002,{'mp-2716168': <CalcType.GGA_Structure_Optimization: 'GGA Structure Optimization'>}
mp-2715819,Na6 Zn6 Ge6 P6 S12 O72,1.2208,{'mp-2715819': <CalcType.GGA_Structure_Optimization: 'GGA Structure Optimization'>}
mp-2715821,Na24 Ti6 Ga6 Si12 P6 O72,2.584399999999999,{'mp-2715821': <CalcType.GGA_Structure_Optimization: 'GGA Structure Optimization'>}
mp-2716182,Na24 La6 Si12 Ge6 P6 O72,1.2857,{'mp-2716182': <CalcType.GGA_Structure_Optimization: 'GGA Structure Optimization'>}
mp-2715799,Na24 Zr6 Sc6 Si12 P6 O72,4.1125,{'mp-2715799': <CalcType.GGA_Structure_Optimization: 'GGA Structure Optimization'>}
mp-2716132,Na24 Y6 Hf6 Si12 P6 O72,3.8566000000000003,{'mp-2716132': <CalcType.GGA_Structure_Optimization: 'GGA Structure Optimization'>}
mp-2716142,Na24 Sc6 Ti6 Si12 P6 O72,2.4101,{'mp-2716142': <CalcType.GGA_Structure_Optimization: 'GGA Structure Optimization'>}
mp-2716227,Na24 Ti6 In6 Si12 P6 O72,2.383199999999999,{'mp-2716227': <CalcType.GGA_Structure_Optimization: 'GGA Structure Optimization'>}
mp-2716257,Na24 Ca6 Nb6 Si12 P6 O72,1.8018,{'mp-2716257': <CalcType.GGA_Structure_Optimization: 'GGA Structure Optimization'>}
mp-2716258,Na24 Hf6 Ga6 Si12 P6 O72,3.8025,{'mp-2716258': <CalcType.GGA_Structure_Optimization: 'GGA Structure Optimization'>}
mp-2716223,Na24 Al6 Si12 Ge6 P6 O72,3.0837,{'mp-2716223': <CalcType.GGA_Structure_Optimization: 'GGA Structure Optimization'>}
mp-42508,Na8 Be2 Al2 Si8 Cl2 O24,4.276599999999999,"{'mp-742821': <CalcType.GGA_Static: 'GGA Static'>, 'mp-1018038': <CalcType.GGA_NSCF_Line: 'GGA NSCF Line'>, 'mp-848662': <CalcType.GGA_NSCF_Line: 'GGA NSCF Line'>, 'mp-1017931': <CalcType.GGA_NSCF_Line: 'GGA NSCF Line'>, 'mp-42694': <CalcType.GGA_Structure_Optimization: 'GGA Structure Optimization'>, 'mp-42655': <CalcType.GGA_Structure_Optimization: 'GGA Structure Optimization'>, 'mp-43158': <CalcType.GGA_Structure_Optimization: 'GGA Structure Optimization'>, 'mp-42508': <CalcType.GGA_Structure_Optimization: 'GGA Structure Optimization'>, 'mp-1248274': <CalcType.GGA_Structure_Optimization: 'GGA Structure Optimization'>, 'mp-1256278': <CalcType.GGA_NMR_Electric_Field_Gradient: 'GGA NMR Electric Field Gradient'>, 'mp-1263619': <CalcType.GGA_NMR_Nuclear_Shielding: 'GGA NMR Nuclear Shielding'>, 'mp-1352677': <CalcType.GGA_Static: 'GGA Static'>, 'mp-1679243': <CalcType.GGA_NSCF_Uniform: 'GGA NSCF Uniform'>, 'mp-1891848': <CalcType.GGA_Static: 'GGA Static'>, 'mp-750884': <CalcType.GGA_NSCF_Line: 'GGA NSCF Line'>, 'mp-859966': <CalcType.GGA_NSCF_Line: 'GGA NSCF Line'>}"
mp-2716235,Na24 Hf6 In6 Si12 P6 O72,3.6615,{'mp-2716235': <CalcType.GGA_Structure_Optimization: 'GGA Structure Optimization'>}
mp-2716193,Na24 Al6 Si12 Sn6 P6 O72,3.383399999999999,{'mp-2716193': <CalcType.GGA_Structure_Optimization: 'GGA Structure Optimization'>}
mp-2716236,Na24 Zr6 Al6 Si12 P6 O72,4.184699999999999,{'mp-2716236': <CalcType.GGA_Structure_Optimization: 'GGA Structure Optimization'>}
mp-43068,Na6 Al6 Si6 Ag2 Br2 O24,3.3352999999999993,"{'mp-848667': <CalcType.GGA_NSCF_Line: 'GGA NSCF Line'>, 'mp-725400': <CalcType.GGA_Static: 'GGA Static'>, 'mp-43068': <CalcType.GGA_Structure_Optimization: 'GGA Structure Optimization'>, 'mp-1134166': <CalcType.GGA_Structure_Optimization: 'GGA Structure Optimization'>, 'mp-1256625': <CalcType.GGA_NMR_Nuclear_Shielding: 'GGA NMR Nuclear Shielding'>, 'mp-1259505': <CalcType.GGA_NMR_Nuclear_Shielding: 'GGA NMR Nuclear Shielding'>, 'mp-1259601': <CalcType.GGA_Structure_Optimization: 'GGA Structure Optimization'>, 'mp-1259880': <CalcType.GGA_NMR_Electric_Field_Gradient: 'GGA NMR Electric Field Gradient'>, 'mp-1260249': <CalcType.GGA_NMR_Electric_Field_Gradient: 'GGA NMR Electric Field Gradient'>, 'mp-1260679': <CalcType.GGA_Structure_Optimization: 'GGA Structure Optimization'>, 'mp-1352055': <CalcType.GGA_Static: 'GGA Static'>, 'mp-1683614': <CalcType.GGA_NSCF_Uniform: 'GGA NSCF Uniform'>, 'mp-1889858': <CalcType.GGA_Static: 'GGA Static'>, 'mp-746678': <CalcType.GGA_NSCF_Line: 'GGA NSCF Line'>}"
mp-1201269,Ca2 Ce2 Al4 Fe2 Si6 O26,0.408699999999999,"{'mp-1201269': <CalcType.GGA_U_Structure_Optimization: 'GGA+U Structure Optimization'>, 'mp-1387933': <CalcType.GGA_U_Static: 'GGA+U Static'>, 'mp-1655310': <CalcType.GGA_U_Static: 'GGA+U Static'>, 'mp-1729392': <CalcType.GGA_U_NSCF_Uniform: 'GGA+U NSCF Uniform'>, 'mp-1825673': <CalcType.GGA_U_Static: 'GGA+U Static'>}"
mp-1214122,Ca2 Ce2 Al2 Fe4 Si6 O26,0.30820000000000003,"{'mp-1214122': <CalcType.GGA_U_Structure_Optimization: 'GGA+U Structure Optimization'>, 'mp-1361067': <CalcType.GGA_U_Static: 'GGA+U Static'>, 'mp-1824164': <CalcType.GGA_U_Static: 'GGA+U Static'>}"
mp-1232413,Na6 Cu2 P4 H12 N2 O26,0.153899999999999,"{'mp-1232413': <CalcType.GGA_Structure_Optimization: 'GGA Structure Optimization'>, 'mp-1876473': <CalcType.GGA_Static: 'GGA Static'>, 'mp-1984226': <CalcType.GGA_Static: 'GGA Static'>}"
mp-696825,Ca4 Al4 Fe2 Si6 H2 O26,2.569499999999999,"{'mp-743780': <CalcType.GGA_U_Structure_Optimization: 'GGA+U Structure Optimization'>, 'mp-801881': <CalcType.GGA_U_Static: 'GGA+U Static'>, 'mp-808592': <CalcType.GGA_U_NSCF_Line: 'GGA+U NSCF Line'>, 'mp-1134043': <CalcType.GGA_U_Structure_Optimization: 'GGA+U Structure Optimization'>, 'mp-1250255': <CalcType.GGA_U_NMR_Nuclear_Shielding: 'GGA+U NMR Nuclear Shielding'>, 'mp-1250662': <CalcType.GGA_U_NMR_Electric_Field_Gradient: 'GGA+U NMR Electric Field Gradient'>, 'mp-1254687': <CalcType.GGA_U_NMR_Electric_Field_Gradient: 'GGA+U NMR Electric Field Gradient'>, 'mp-1255799': <CalcType.GGA_U_NMR_Nuclear_Shielding: 'GGA+U NMR Nuclear Shielding'>, 'mp-1266295': <CalcType.GGA_U_Structure_Optimization: 'GGA+U Structure Optimization'>, 'mp-1267562': <CalcType.GGA_U_Structure_Optimization: 'GGA+U Structure Optimization'>, 'mp-696825': <CalcType.GGA_Structure_Optimization: 'GGA Structure Optimization'>, 'mp-883848': <CalcType.GGA_Static: 'GGA Static'>, 'mp-1375168': <CalcType.GGA_U_Static: 'GGA+U Static'>, 'mp-1822325': <CalcType.GGA_U_Static: 'GGA+U Static'>, 'mp-809245': <CalcType.GGA_U_NSCF_Line: 'GGA+U NSCF Line'>}"