Material ID,Composition,Band Gap,Calc Types
mp-721011,Pr20 Al1 Si19 N33 Cl2 O19,3.0125,"{'mp-721011': <CalcType.GGA_Structure_Optimization: 'GGA Structure Optimization'>, 'mp-733799': <CalcType.GGA_Static: 'GGA Static'>, 'mp-864262': <CalcType.GGA_NSCF_Line: 'GGA NSCF Line'>, 'mp-1134197': <CalcType.GGA_Structure_Optimization: 'GGA Structure Optimization'>, 'mp-1249695': <CalcType.GGA_NMR_Nuclear_Shielding: 'GGA NMR Nuclear Shielding'>, 'mp-1258578': <CalcType.GGA_NMR_Nuclear_Shielding: 'GGA NMR Nuclear Shielding'>, 'mp-1262898': <CalcType.GGA_Structure_Optimization: 'GGA Structure Optimization'>, 'mp-1263921': <CalcType.GGA_NMR_Electric_Field_Gradient: 'GGA NMR Electric Field Gradient'>, 'mp-1266137': <CalcType.GGA_Structure_Optimization: 'GGA Structure Optimization'>, 'mp-1266178': <CalcType.GGA_NMR_Electric_Field_Gradient: 'GGA NMR Electric Field Gradient'>, 'mp-1334682': <CalcType.GGA_Static: 'GGA Static'>, 'mp-745744': <CalcType.GGA_NSCF_Line: 'GGA NSCF Line'>, 'mp-864605': <CalcType.GGA_NSCF_Line: 'GGA NSCF Line'>}"
mp-1238434,K6 Ti2 Fe2 H8 S8 O38,0.5523,"{'mp-1238434': <CalcType.GGA_U_Structure_Optimization: 'GGA+U Structure Optimization'>, 'mp-1325112': <CalcType.GGA_U_Static: 'GGA+U Static'>, 'mp-1894994': <CalcType.GGA_U_Static: 'GGA+U Static'>}"
mp-1225282,K6 Ti2 Fe2 H8 S8 O38,2.4305,"{'mp-1225282': <CalcType.GGA_U_Structure_Optimization: 'GGA+U Structure Optimization'>, 'mp-1896704': <CalcType.GGA_U_Static: 'GGA+U Static'>}"
mp-1202945,K4 Na2 Ca4 Ti2 Si14 O40,0.328,"{'mp-1202945': <CalcType.GGA_Structure_Optimization: 'GGA Structure Optimization'>, 'mp-1894123': <CalcType.GGA_Static: 'GGA Static'>, 'mp-1983678': <CalcType.GGA_Static: 'GGA Static'>}"
mp-1233500,K2 Mg1 Mn2 P6 H2 O20,3.843,"{'mp-1233500': <CalcType.GGA_U_Structure_Optimization: 'GGA+U Structure Optimization'>, 'mp-2216967': <CalcType.GGA_U_Static: 'GGA+U Static'>}"
mp-1227545,Ba1 Sr1 Mn2 Al9 Pb1 O20,1.233,"{'mp-1227545': <CalcType.GGA_U_Structure_Optimization: 'GGA+U Structure Optimization'>, 'mp-1359431': <CalcType.GGA_U_Static: 'GGA+U Static'>, 'mp-1819729': <CalcType.GGA_U_Static: 'GGA+U Static'>, 'mp-2901574': <CalcType.r2SCAN_Structure_Optimization: 'r2SCAN Structure Optimization'>}"
mp-1233276,K2 Mg1 Mn2 P6 H2 O20,3.404299999999999,"{'mp-1233276': <CalcType.GGA_U_Structure_Optimization: 'GGA+U Structure Optimization'>, 'mp-2216780': <CalcType.GGA_U_Static: 'GGA+U Static'>}"
mp-1233826,Mg1 Cd4 Cu4 As4 H4 O20,0.0,{'mp-1233826': <CalcType.GGA_Structure_Optimization: 'GGA Structure Optimization'>}
mp-1233920,Rb2 Mg1 Cu4 H5 S4 O20,0.0,{'mp-1233920': <CalcType.GGA_Structure_Optimization: 'GGA Structure Optimization'>}
mp-1233622,Rb2 Mg1 Cu4 H5 S4 O20,0.0,{'mp-1233622': <CalcType.GGA_Structure_Optimization: 'GGA Structure Optimization'>}
mp-1233896,Rb2 Mg1 Cu4 H5 S4 O20,0.0,{'mp-1233896': <CalcType.GGA_Structure_Optimization: 'GGA Structure Optimization'>}
mp-1234148,Mg1 Al2 Ga2 Cu4 As4 O20,0.012,{'mp-1234148': <CalcType.GGA_Structure_Optimization: 'GGA Structure Optimization'>}
mp-1234188,Rb2 Mg1 Cu4 H5 S4 O20,0.0626,{'mp-1234188': <CalcType.GGA_Structure_Optimization: 'GGA Structure Optimization'>}
mp-1234616,Mg1 Al2 Ga2 Cu4 As4 O20,0.024599999999999,{'mp-1234616': <CalcType.GGA_Structure_Optimization: 'GGA Structure Optimization'>}
mp-1234789,Rb2 Mg1 Cu4 H5 S4 O20,0.0,{'mp-1234789': <CalcType.GGA_Structure_Optimization: 'GGA Structure Optimization'>}
mp-2216002,K2 Mg1 Mn2 P6 H2 O20,3.5628,"{'mp-2216002': <CalcType.GGA_U_Structure_Optimization: 'GGA+U Structure Optimization'>, 'mp-2216735': <CalcType.GGA_U_Static: 'GGA+U Static'>, 'mp-2220588': <CalcType.GGA_U_Static: 'GGA+U Static'>, 'mp-2220416': <CalcType.GGA_U_Structure_Optimization: 'GGA+U Structure Optimization'>}"
mp-728519,K4 Na2 Ca4 Ti2 Si14 O40,0.026499999999999004,{'mp-728519': <CalcType.GGA_Static: 'GGA Static'>}
mp-1200724,Mg8 P8 H112 C4 Cl8 O80,3.8884,"{'mp-1200724': <CalcType.GGA_Structure_Optimization: 'GGA Structure Optimization'>, 'mp-1984859': <CalcType.GGA_Static: 'GGA Static'>}"
mp-1223475,K2 Na2 Ca2 Th2 Si16 O40,4.908,"{'mp-1223475': <CalcType.GGA_Structure_Optimization: 'GGA Structure Optimization'>, 'mp-1325585': <CalcType.GGA_Static: 'GGA Static'>, 'mp-2911655': <CalcType.r2SCAN_Structure_Optimization: 'r2SCAN Structure Optimization'>}"
mp-1219651,Rb2 Na2 Ca2 Th2 Si16 O40,4.934799999999999,"{'mp-1219651': <CalcType.GGA_Structure_Optimization: 'GGA Structure Optimization'>, 'mp-1324423': <CalcType.GGA_Static: 'GGA Static'>}"
mp-1196696,Na28 U4 H16 S16 Cl4 O80,1.871999999999999,{'mp-1196696': <CalcType.GGA_Structure_Optimization: 'GGA Structure Optimization'>}
mp-706336,Na8 Be4 Si12 Sn2 H8 O40,4.0735,"{'mp-706336': <CalcType.GGA_Structure_Optimization: 'GGA Structure Optimization'>, 'mp-864090': <CalcType.GGA_NSCF_Line: 'GGA NSCF Line'>, 'mp-727742': <CalcType.GGA_Static: 'GGA Static'>, 'mp-1134024': <CalcType.GGA_Structure_Optimization: 'GGA Structure Optimization'>, 'mp-1248831': <CalcType.GGA_NMR_Electric_Field_Gradient: 'GGA NMR Electric Field Gradient'>, 'mp-1258121': <CalcType.GGA_Structure_Optimization: 'GGA Structure Optimization'>, 'mp-1266057': <CalcType.GGA_NMR_Nuclear_Shielding: 'GGA NMR Nuclear Shielding'>, 'mp-1350538': <CalcType.GGA_Static: 'GGA Static'>, 'mp-1686015': <CalcType.GGA_NSCF_Uniform: 'GGA NSCF Uniform'>, 'mp-1898046': <CalcType.GGA_Static: 'GGA Static'>, 'mp-737146': <CalcType.GGA_NSCF_Line: 'GGA NSCF Line'>, 'mp-864386': <CalcType.GGA_NSCF_Line: 'GGA NSCF Line'>}"
mp-558370,Ca6 Ti2 Be4 Si4 As12 O40,2.1809,"{'mp-683628': <CalcType.GGA_Static: 'GGA Static'>, 'mp-795194': <CalcType.GGA_NSCF_Line: 'GGA NSCF Line'>, 'mp-1018006': <CalcType.GGA_NSCF_Line: 'GGA NSCF Line'>, 'mp-1017932': <CalcType.GGA_NSCF_Line: 'GGA NSCF Line'>, 'mp-558370': <CalcType.GGA_Structure_Optimization: 'GGA Structure Optimization'>, 'mp-1134128': <CalcType.GGA_Structure_Optimization: 'GGA Structure Optimization'>, 'mp-1351326': <CalcType.GGA_Static: 'GGA Static'>, 'mp-1679834': <CalcType.GGA_NSCF_Uniform: 'GGA NSCF Uniform'>, 'mp-1920911': <CalcType.GGA_Static: 'GGA Static'>, 'mp-795428': <CalcType.GGA_NSCF_Line: 'GGA NSCF Line'>}"
mp-1197884,V1 H17 C4 S4 O20 F12,2.8513,"{'mp-1197884': <CalcType.GGA_U_Structure_Optimization: 'GGA+U Structure Optimization'>, 'mp-1379894': <CalcType.GGA_U_Static: 'GGA+U Static'>, 'mp-1881544': <CalcType.GGA_U_Static: 'GGA+U Static'>}"
mp-1201380,V1 H17 C4 S4 O20 F12,2.8314,"{'mp-1201380': <CalcType.GGA_U_Structure_Optimization: 'GGA+U Structure Optimization'>, 'mp-1361457': <CalcType.GGA_U_Static: 'GGA+U Static'>, 'mp-1886861': <CalcType.GGA_U_Static: 'GGA+U Static'>}"
mp-1217511,V4 Co1 H12 C2 N6 O20,0.0,"{'mp-1217511': <CalcType.GGA_U_Structure_Optimization: 'GGA+U Structure Optimization'>, 'mp-1937871': <CalcType.GGA_U_Static: 'GGA+U Static'>}"
mp-1228335,Ba4 Ti1 Al3 P4 O20 F4,0.0,"{'mp-1228335': <CalcType.GGA_Structure_Optimization: 'GGA Structure Optimization'>, 'mp-1358537': <CalcType.GGA_Static: 'GGA Static'>, 'mp-1822799': <CalcType.GGA_Static: 'GGA Static'>}"
mp-1228198,Ca4 Mg1 Zn1 As4 H8 O20,3.5302,"{'mp-1228198': <CalcType.GGA_Structure_Optimization: 'GGA Structure Optimization'>, 'mp-1815375': <CalcType.GGA_Static: 'GGA Static'>}"
mp-1233305,K2 Mg1 Mn2 P6 H2 O20,3.6782,"{'mp-1233305': <CalcType.GGA_U_Structure_Optimization: 'GGA+U Structure Optimization'>, 'mp-2216776': <CalcType.GGA_U_Static: 'GGA+U Static'>}"
mp-556278,Bi6 As9 Se4 S10 O20 F65,2.0161,"{'mp-735382': <CalcType.GGA_NSCF_Line: 'GGA NSCF Line'>, 'mp-724082': <CalcType.GGA_Static: 'GGA Static'>, 'mp-556278': <CalcType.GGA_Structure_Optimization: 'GGA Structure Optimization'>, 'mp-1366066': <CalcType.GGA_Static: 'GGA Static'>, 'mp-745072': <CalcType.GGA_NSCF_Line: 'GGA NSCF Line'>}"
mp-757218,K4 Na2 H18 Pd1 I2 O20,1.7586,"{'mp-757218': <CalcType.GGA_Structure_Optimization: 'GGA Structure Optimization'>, 'mp-851367': <CalcType.GGA_NSCF_Line: 'GGA NSCF Line'>, 'mp-850595': <CalcType.GGA_Static: 'GGA Static'>, 'mp-1378187': <CalcType.GGA_Static: 'GGA Static'>, 'mp-1825084': <CalcType.GGA_Static: 'GGA Static'>, 'mp-853406': <CalcType.GGA_NSCF_Line: 'GGA NSCF Line'>}"
mp-1200353,Cs8 K6 U6 Si8 O40 F2,2.1139,"{'mp-1200353': <CalcType.GGA_Structure_Optimization: 'GGA Structure Optimization'>, 'mp-1238277': <CalcType.GGA_Structure_Optimization: 'GGA Structure Optimization'>, 'mp-1331754': <CalcType.GGA_Static: 'GGA Static'>, 'mp-1849109': <CalcType.GGA_Static: 'GGA Static'>, 'mp-2911538': <CalcType.r2SCAN_Structure_Optimization: 'r2SCAN Structure Optimization'>}"
mp-1218619,Sr4 Ce1 Pr3 Nb2 Cu4 O20,0.0,"{'mp-1218619': <CalcType.GGA_Structure_Optimization: 'GGA Structure Optimization'>, 'mp-1359449': <CalcType.GGA_Static: 'GGA Static'>, 'mp-1867805': <CalcType.GGA_Static: 'GGA Static'>}"
mp-1218607,Sr4 Ce1 Nd3 Nb2 Cu4 O20,0.0,"{'mp-1218607': <CalcType.GGA_Structure_Optimization: 'GGA Structure Optimization'>, 'mp-1354957': <CalcType.GGA_Static: 'GGA Static'>, 'mp-1816540': <CalcType.GGA_Static: 'GGA Static'>}"
mp-1197419,Rb12 Na2 U6 Si8 O40 F2,2.147399999999999,"{'mp-1197419': <CalcType.GGA_Structure_Optimization: 'GGA Structure Optimization'>, 'mp-1844384': <CalcType.GGA_Static: 'GGA Static'>, 'mp-1984180': <CalcType.GGA_Static: 'GGA Static'>}"
mp-1234626,Mg1 Cd4 Cu4 As4 H4 O20,0.09479999999999901,{'mp-1234626': <CalcType.GGA_Structure_Optimization: 'GGA Structure Optimization'>}
mp-1233851,Mg1 Cd4 Cu4 As4 H4 O20,0.0,{'mp-1233851': <CalcType.GGA_Structure_Optimization: 'GGA Structure Optimization'>}
mp-1234648,Mg1 Cd4 Cu4 As4 H4 O20,0.0,{'mp-1234648': <CalcType.GGA_Structure_Optimization: 'GGA Structure Optimization'>}
mp-1218787,Sr4 Ce1 Y3 Cu4 Ru2 O20,0.0,"{'mp-1218787': <CalcType.GGA_Structure_Optimization: 'GGA Structure Optimization'>, 'mp-1358283': <CalcType.GGA_Static: 'GGA Static'>, 'mp-1818229': <CalcType.GGA_Static: 'GGA Static'>}"
mp-1218622,Sr4 Ce1 Sm3 Nb2 Cu4 O20,0.0,"{'mp-1218622': <CalcType.GGA_Structure_Optimization: 'GGA Structure Optimization'>, 'mp-1361203': <CalcType.GGA_Static: 'GGA Static'>, 'mp-1815482': <CalcType.GGA_Static: 'GGA Static'>}"
mp-736225,Sr4 Re8 H32 C6 N12 O42,3.2795,{'mp-736225': <CalcType.GGA_Structure_Optimization: 'GGA Structure Optimization'>}
mp-1228635,Ba6 Ca1 Eu2 Cu6 Hg3 O21,0.0,"{'mp-1228635': <CalcType.GGA_Structure_Optimization: 'GGA Structure Optimization'>, 'mp-1909369': <CalcType.GGA_Static: 'GGA Static'>}"
mp-1198421,Na6 Mg6 Al6 H108 C36 O126,3.5644,{'mp-1198421': <CalcType.GGA_Structure_Optimization: 'GGA Structure Optimization'>}
mp-698475,K8 Er2 P12 H12 Cl2 O42,4.8696,"{'mp-740384': <CalcType.GGA_NSCF_Line: 'GGA NSCF Line'>, 'mp-698475': <CalcType.GGA_Structure_Optimization: 'GGA Structure Optimization'>, 'mp-727097': <CalcType.GGA_Static: 'GGA Static'>, 'mp-1328818': <CalcType.GGA_Static: 'GGA Static'>, 'mp-1850376': <CalcType.GGA_Static: 'GGA Static'>, 'mp-748396': <CalcType.GGA_NSCF_Line: 'GGA NSCF Line'>}"
mp-1202476,Cu4 H12 Pb10 C2 S6 O42,0.5598000000000001,"{'mp-1202476': <CalcType.GGA_Structure_Optimization: 'GGA Structure Optimization'>, 'mp-1350238': <CalcType.GGA_Static: 'GGA Static'>, 'mp-1849598': <CalcType.GGA_Static: 'GGA Static'>}"
mp-745984,Sr4 Re8 H32 C6 N12 O42,3.2686,"{'mp-745984': <CalcType.GGA_Static: 'GGA Static'>, 'mp-750644': <CalcType.GGA_NSCF_Line: 'GGA NSCF Line'>, 'mp-1101391': <CalcType.GGA_Structure_Optimization: 'GGA Structure Optimization'>, 'mp-1332174': <CalcType.GGA_Static: 'GGA Static'>, 'mp-751082': <CalcType.GGA_NSCF_Line: 'GGA NSCF Line'>}"
mp-1218697,Sr12 Ca2 Y4 Ga6 Cu12 O42,0.0,"{'mp-1218697': <CalcType.GGA_Structure_Optimization: 'GGA Structure Optimization'>, 'mp-1331800': <CalcType.GGA_Static: 'GGA Static'>, 'mp-1846615': <CalcType.GGA_Static: 'GGA Static'>}"
mp-1202406,Ba6 Na2 Ca2 Y2 C12 O42,0.00019999999999900002,"{'mp-1202406': <CalcType.GGA_Structure_Optimization: 'GGA Structure Optimization'>, 'mp-1324101': <CalcType.GGA_Static: 'GGA Static'>, 'mp-1844848': <CalcType.GGA_Static: 'GGA Static'>}"
mp-1218712,Sr12 Ca2 Y4 Ga6 Cu12 O42,0.0,"{'mp-1218712': <CalcType.GGA_Structure_Optimization: 'GGA Structure Optimization'>, 'mp-1333952': <CalcType.GGA_Static: 'GGA Static'>, 'mp-1847275': <CalcType.GGA_Static: 'GGA Static'>}"
mp-1173861,Na3 Mg4 In1 Si8 O22 F2,4.0872,"{'mp-1173861': <CalcType.GGA_Structure_Optimization: 'GGA Structure Optimization'>, 'mp-1221244': <CalcType.GGA_Structure_Optimization: 'GGA Structure Optimization'>, 'mp-1355710': <CalcType.GGA_Static: 'GGA Static'>, 'mp-1819300': <CalcType.GGA_Static: 'GGA Static'>}"
mp-1173738,Na3 Mg4 Sc1 Si8 O22 F2,4.619199999999999,"{'mp-1173738': <CalcType.GGA_Structure_Optimization: 'GGA Structure Optimization'>, 'mp-1818505': <CalcType.GGA_Static: 'GGA Static'>}"
mp-1221470,Na2 Ca1 Mg5 Si8 O22 F2,4.5395,"{'mp-1221470': <CalcType.GGA_Structure_Optimization: 'GGA Structure Optimization'>, 'mp-1379075': <CalcType.GGA_Static: 'GGA Static'>, 'mp-1819595': <CalcType.GGA_Static: 'GGA Static'>}"
mp-1200471,Cs1 V3 B2 P4 H8 O22,0.0,"{'mp-1200471': <CalcType.GGA_U_Structure_Optimization: 'GGA+U Structure Optimization'>, 'mp-1238392': <CalcType.GGA_U_Structure_Optimization: 'GGA+U Structure Optimization'>, 'mp-1402630': <CalcType.GGA_U_Static: 'GGA+U Static'>, 'mp-1733618': <CalcType.GGA_U_NSCF_Uniform: 'GGA+U NSCF Uniform'>, 'mp-1818003': <CalcType.GGA_U_Static: 'GGA+U Static'>}"
mp-1198749,Ca4 Al4 Si12 Sn2 H12 O44,4.275,"{'mp-1198749': <CalcType.GGA_Structure_Optimization: 'GGA Structure Optimization'>, 'mp-1894590': <CalcType.GGA_Static: 'GGA Static'>, 'mp-1987901': <CalcType.GGA_Static: 'GGA Static'>}"
mp-1215091,Ca4 Al4 Si12 Sn2 H12 O44,3.293799999999999,"{'mp-1215091': <CalcType.GGA_Structure_Optimization: 'GGA Structure Optimization'>, 'mp-1894320': <CalcType.GGA_Static: 'GGA Static'>}"
mp-1173822,Na6 Mg8 Cr2 Si16 O44 F4,3.449499999999999,"{'mp-1173822': <CalcType.GGA_U_Structure_Optimization: 'GGA+U Structure Optimization'>, 'mp-1896001': <CalcType.GGA_U_Static: 'GGA+U Static'>}"
mp-1173812,Na6 Mg8 Sc2 Si16 O44 F4,4.553699999999999,"{'mp-1173812': <CalcType.GGA_Structure_Optimization: 'GGA Structure Optimization'>, 'mp-1920935': <CalcType.GGA_Static: 'GGA Static'>}"
mp-1210426,Na8 Ca8 Ti8 Si8 O44 F6,0.0,"{'mp-1210426': <CalcType.GGA_Structure_Optimization: 'GGA Structure Optimization'>, 'mp-1336371': <CalcType.GGA_Static: 'GGA Static'>, 'mp-1846357': <CalcType.GGA_Static: 'GGA Static'>}"
mp-1214629,Ba2 Zn2 Cr7 Ga2 Sn2 O22,0.0,"{'mp-1214629': <CalcType.GGA_U_Structure_Optimization: 'GGA+U Structure Optimization'>, 'mp-1356271': <CalcType.GGA_U_Static: 'GGA+U Static'>, 'mp-1769135': <CalcType.GGA_U_Static: 'GGA+U Static'>, 'mp-1818199': <CalcType.GGA_U_Static: 'GGA+U Static'>}"
mp-1180606,Na4 Cu1 P6 H22 N6 O22,0.21550000000000002,"{'mp-1180606': <CalcType.GGA_Structure_Optimization: 'GGA Structure Optimization'>, 'mp-1330960': <CalcType.GGA_Static: 'GGA Static'>, 'mp-1658176': <CalcType.GGA_Static: 'GGA Static'>, 'mp-1936000': <CalcType.GGA_Static: 'GGA Static'>}"
mp-1208461,U1 Cr4 H48 C14 N30 O22,2.3131,"{'mp-1208461': <CalcType.GGA_U_Structure_Optimization: 'GGA+U Structure Optimization'>, 'mp-1846185': <CalcType.GGA_U_Static: 'GGA+U Static'>}"
mp-693605,Na6 Mg8 Cr2 Si16 O44 F4,1.158,"{'mp-743787': <CalcType.GGA_U_Structure_Optimization: 'GGA+U Structure Optimization'>, 'mp-818565': <CalcType.GGA_U_Static: 'GGA+U Static'>, 'mp-731465': <CalcType.GGA_Static: 'GGA Static'>, 'mp-693605': <CalcType.GGA_Structure_Optimization: 'GGA Structure Optimization'>, 'mp-1363795': <CalcType.GGA_U_Static: 'GGA+U Static'>, 'mp-1844340': <CalcType.GGA_U_Static: 'GGA+U Static'>}"
mp-706670,Al1 Cu1 H28 S2 Cl1 O22,0.897699999999999,"{'mp-706670': <CalcType.GGA_Structure_Optimization: 'GGA Structure Optimization'>, 'mp-728387': <CalcType.GGA_Static: 'GGA Static'>, 'mp-733187': <CalcType.GGA_NSCF_Line: 'GGA NSCF Line'>, 'mp-999621': <CalcType.GGA_NSCF_Line: 'GGA NSCF Line'>, 'mp-1258817': <CalcType.GGA_NMR_Electric_Field_Gradient: 'GGA NMR Electric Field Gradient'>, 'mp-1260427': <CalcType.GGA_NMR_Nuclear_Shielding: 'GGA NMR Nuclear Shielding'>, 'mp-1266467': <CalcType.GGA_Structure_Optimization: 'GGA Structure Optimization'>, 'mp-1347234': <CalcType.GGA_Static: 'GGA Static'>, 'mp-1825334': <CalcType.GGA_Static: 'GGA Static'>, 'mp-999809': <CalcType.GGA_NSCF_Line: 'GGA NSCF Line'>, 'mp-737696': <CalcType.GGA_NSCF_Line: 'GGA NSCF Line'>}"
mp-1217853,Sr1 Zr1 Cd1 H8 C8 O22,0.22080000000000002,"{'mp-1217853': <CalcType.GGA_Structure_Optimization: 'GGA Structure Optimization'>, 'mp-1360733': <CalcType.GGA_Static: 'GGA Static'>, 'mp-1890724': <CalcType.GGA_Static: 'GGA Static'>}"
mp-1197574,Ba12 Na4 Mn16 Si24 O88 F4,0.6848000000000001,{'mp-1197574': <CalcType.GGA_U_Structure_Optimization: 'GGA+U Structure Optimization'>}
mp-1228289,Ba4 Nd4 Ti3 Mn1 Cu4 O22,0.0,"{'mp-1228289': <CalcType.GGA_U_Structure_Optimization: 'GGA+U Structure Optimization'>, 'mp-1657302': <CalcType.GGA_U_Static: 'GGA+U Static'>, 'mp-1824153': <CalcType.GGA_U_Static: 'GGA+U Static'>}"
mp-720999,Ca2 Mg2 U2 H48 C6 O46,2.3373,"{'mp-1329541': <CalcType.GGA_Static: 'GGA Static'>, 'mp-1769449': <CalcType.GGA_Static: 'GGA Static'>, 'mp-1848471': <CalcType.GGA_Static: 'GGA Static'>, 'mp-1583560': <CalcType.GGA_NSCF_Line: 'GGA NSCF Line'>, 'mp-720999': <CalcType.GGA_Structure_Optimization: 'GGA Structure Optimization'>}"
mp-707710,Sr2 Mg2 U2 H48 C6 O46,2.284,"{'mp-707710': <CalcType.GGA_Structure_Optimization: 'GGA Structure Optimization'>, 'mp-728876': <CalcType.GGA_Static: 'GGA Static'>, 'mp-864166': <CalcType.GGA_NSCF_Line: 'GGA NSCF Line'>, 'mp-1330187': <CalcType.GGA_Static: 'GGA Static'>, 'mp-1851315': <CalcType.GGA_Static: 'GGA Static'>, 'mp-1583681': <CalcType.GGA_NSCF_Line: 'GGA NSCF Line'>, 'mp-737863': <CalcType.GGA_NSCF_Line: 'GGA NSCF Line'>}"
mp-1177293,Li4 Ti1 Cr2 Ni3 P6 O24,1.3658000000000001,"{'mp-1177293': <CalcType.GGA_U_Structure_Optimization: 'GGA+U Structure Optimization'>, 'mp-1358749': <CalcType.GGA_U_Static: 'GGA+U Static'>, 'mp-1823181': <CalcType.GGA_U_Static: 'GGA+U Static'>}"
mp-1177317,Li4 Ti1 Fe3 Sn2 P6 O24,1.511699999999999,"{'mp-1177317': <CalcType.GGA_U_Structure_Optimization: 'GGA+U Structure Optimization'>, 'mp-1933421': <CalcType.GGA_U_Static: 'GGA+U Static'>}"
mp-1177440,Li4 Mn2 Fe1 Ni3 P6 O24,0.0,"{'mp-1177440': <CalcType.GGA_U_Structure_Optimization: 'GGA+U Structure Optimization'>, 'mp-1358996': <CalcType.GGA_U_Static: 'GGA+U Static'>, 'mp-1822938': <CalcType.GGA_U_Static: 'GGA+U Static'>}"
mp-1177446,Li4 Fe2 Ni3 Te1 P6 O24,2.8717,"{'mp-1177446': <CalcType.GGA_U_Structure_Optimization: 'GGA+U Structure Optimization'>, 'mp-1380532': <CalcType.GGA_U_Static: 'GGA+U Static'>, 'mp-1920968': <CalcType.GGA_U_Static: 'GGA+U Static'>}"
mp-1177467,Li4 Fe1 Co2 Ni3 P6 O24,0.0,"{'mp-1177467': <CalcType.GGA_U_Structure_Optimization: 'GGA+U Structure Optimization'>, 'mp-1352458': <CalcType.GGA_U_Static: 'GGA+U Static'>}"
mp-1177389,Li4 Mn3 Cr2 Sn1 P6 O24,1.915,"{'mp-1177389': <CalcType.GGA_U_Structure_Optimization: 'GGA+U Structure Optimization'>, 'mp-1380533': <CalcType.GGA_U_Static: 'GGA+U Static'>, 'mp-1824606': <CalcType.GGA_U_Static: 'GGA+U Static'>}"
mp-1177395,Li4 Mn3 Co1 Cu2 P6 O24,0.0,"{'mp-1177395': <CalcType.GGA_U_Structure_Optimization: 'GGA+U Structure Optimization'>, 'mp-1655378': <CalcType.GGA_U_Static: 'GGA+U Static'>, 'mp-1921425': <CalcType.GGA_U_Static: 'GGA+U Static'>}"
mp-1094103,Na1 Mg1 Al3 Si8 H4 O24,4.7203,"{'mp-1094103': <CalcType.GGA_Structure_Optimization: 'GGA Structure Optimization'>, 'mp-1248948': <CalcType.GGA_Structure_Optimization: 'GGA Structure Optimization'>, 'mp-1249118': <CalcType.GGA_NMR_Electric_Field_Gradient: 'GGA NMR Electric Field Gradient'>, 'mp-1249312': <CalcType.GGA_NMR_Nuclear_Shielding: 'GGA NMR Nuclear Shielding'>, 'mp-1251087': <CalcType.GGA_Structure_Optimization: 'GGA Structure Optimization'>, 'mp-1255705': <CalcType.GGA_NMR_Electric_Field_Gradient: 'GGA NMR Electric Field Gradient'>, 'mp-1265538': <CalcType.GGA_NMR_Nuclear_Shielding: 'GGA NMR Nuclear Shielding'>, 'mp-1350273': <CalcType.GGA_Static: 'GGA Static'>, 'mp-1824982': <CalcType.GGA_Static: 'GGA Static'>}"