Material ID,Composition,Band Gap,Calc Types
mp-1228200,Ba2 Y2 Fe1 Co2 Cu1 O10,0.0,"{'mp-1228200': <CalcType.GGA_U_Structure_Optimization: 'GGA+U Structure Optimization'>, 'mp-1372527': <CalcType.GGA_U_Static: 'GGA+U Static'>, 'mp-1659624': <CalcType.GGA_U_Static: 'GGA+U Static'>, 'mp-1776269': <CalcType.GGA_U_Static: 'GGA+U Static'>}"
mp-1218854,Sr2 Ce1 Y1 Cu2 Ru1 O10,0.0,"{'mp-1218854': <CalcType.GGA_Structure_Optimization: 'GGA Structure Optimization'>, 'mp-1376436': <CalcType.GGA_Static: 'GGA Static'>, 'mp-1833226': <CalcType.GGA_Static: 'GGA Static'>}"
mp-1228298,Ba3 Sr1 Tl2 Cu2 Hg1 O10,0.0,"{'mp-1228298': <CalcType.GGA_Structure_Optimization: 'GGA Structure Optimization'>, 'mp-1331188': <CalcType.GGA_Static: 'GGA Static'>, 'mp-1810696': <CalcType.GGA_Static: 'GGA Static'>}"
mp-1211355,K1 Li1 Al2 Si4 O10 F2,0.0,"{'mp-1211355': <CalcType.GGA_Structure_Optimization: 'GGA Structure Optimization'>, 'mp-1337298': <CalcType.GGA_Static: 'GGA Static'>, 'mp-1775602': <CalcType.GGA_Static: 'GGA Static'>}"
mp-1233236,Ba1 Ca1 V2 Ni3 H2 O10,0.44370000000000004,"{'mp-1233236': <CalcType.GGA_U_Structure_Optimization: 'GGA+U Structure Optimization'>, 'mp-1233472': <CalcType.GGA_U_Static: 'GGA+U Static'>}"
mp-1214627,Ba2 Sr1 Y2 Cu2 Pt1 O10,0.585399999999999,"{'mp-1214627': <CalcType.GGA_Structure_Optimization: 'GGA Structure Optimization'>, 'mp-1332233': <CalcType.GGA_Static: 'GGA Static'>, 'mp-1932466': <CalcType.GGA_Static: 'GGA Static'>}"
mp-1233294,Ba1 Mg1 V2 Ni3 H2 O10,1.372199999999999,"{'mp-1233294': <CalcType.GGA_U_Structure_Optimization: 'GGA+U Structure Optimization'>, 'mp-1234016': <CalcType.GGA_U_Static: 'GGA+U Static'>}"
mp-1236219,Ba1 Li1 V2 Ni3 H2 O10,0.043499999999999005,"{'mp-1236219': <CalcType.GGA_U_Static: 'GGA+U Static'>, 'mp-1236778': <CalcType.GGA_U_Structure_Optimization: 'GGA+U Structure Optimization'>}"
mp-561491,K1 Na1 Mg2 Si4 O10 F2,5.2111,"{'mp-714357': <CalcType.GGA_NSCF_Line: 'GGA NSCF Line'>, 'mp-688824': <CalcType.GGA_Static: 'GGA Static'>, 'mp-707610': <CalcType.GGA_NSCF_Line: 'GGA NSCF Line'>, 'mp-561491': <CalcType.GGA_Structure_Optimization: 'GGA Structure Optimization'>, 'mp-1133962': <CalcType.GGA_Structure_Optimization: 'GGA Structure Optimization'>, 'mp-1248940': <CalcType.GGA_NMR_Nuclear_Shielding: 'GGA NMR Nuclear Shielding'>, 'mp-1249474': <CalcType.GGA_NMR_Electric_Field_Gradient: 'GGA NMR Electric Field Gradient'>, 'mp-1251568': <CalcType.GGA_Structure_Optimization: 'GGA Structure Optimization'>, 'mp-1381005': <CalcType.GGA_Static: 'GGA Static'>, 'mp-1539391': <CalcType.GGA_DFPT_Dielectric: 'GGA DFPT Dielectric'>, 'mp-1540795': <CalcType.GGA_Structure_Optimization: 'GGA Structure Optimization'>, 'mp-1676251': <CalcType.GGA_NSCF_Uniform: 'GGA NSCF Uniform'>, 'mp-1776103': <CalcType.GGA_Static: 'GGA Static'>}"
mp-1182596,Co2 H64 C16 S8 N4 O20,2.5972,"{'mp-1182596': <CalcType.GGA_U_Structure_Optimization: 'GGA+U Structure Optimization'>, 'mp-1236868': <CalcType.GGA_U_Structure_Optimization: 'GGA+U Structure Optimization'>, 'mp-1333481': <CalcType.GGA_U_Static: 'GGA+U Static'>, 'mp-1849281': <CalcType.GGA_U_Static: 'GGA+U Static'>, 'mp-1628636': <CalcType.GGA_U_NSCF_Line: 'GGA+U NSCF Line'>}"
mp-1182055,Co2 H64 C16 S8 N4 O20,1.024,"{'mp-1182055': <CalcType.GGA_U_Structure_Optimization: 'GGA+U Structure Optimization'>, 'mp-1338493': <CalcType.GGA_U_Static: 'GGA+U Static'>}"
mp-1195968,Cs4 Al4 V4 P8 H8 O40,2.769,"{'mp-1195968': <CalcType.GGA_U_Structure_Optimization: 'GGA+U Structure Optimization'>, 'mp-1920347': <CalcType.GGA_U_Static: 'GGA+U Static'>, 'mp-1985932': <CalcType.GGA_U_Static: 'GGA+U Static'>}"
mp-1196380,Sm4 Ag4 H16 C8 S4 O40,2.5559000000000003,"{'mp-1196380': <CalcType.GGA_Structure_Optimization: 'GGA Structure Optimization'>, 'mp-1353462': <CalcType.GGA_Static: 'GGA Static'>, 'mp-1681574': <CalcType.GGA_NSCF_Uniform: 'GGA NSCF Uniform'>, 'mp-1897086': <CalcType.GGA_Static: 'GGA Static'>}"
mp-1197566,Na4 Co4 P4 H40 C4 O40,3.3235,"{'mp-1197566': <CalcType.GGA_U_Structure_Optimization: 'GGA+U Structure Optimization'>, 'mp-1849190': <CalcType.GGA_U_Static: 'GGA+U Static'>, 'mp-1982155': <CalcType.GGA_U_Static: 'GGA+U Static'>}"
mp-1199835,Cs4 Fe4 P8 H12 C4 O40,2.6647,"{'mp-1199835': <CalcType.GGA_U_Structure_Optimization: 'GGA+U Structure Optimization'>, 'mp-1850882': <CalcType.GGA_U_Static: 'GGA+U Static'>}"
mp-1202300,V4 H60 C16 S8 N8 O40,1.9578000000000002,"{'mp-1202300': <CalcType.GGA_U_Structure_Optimization: 'GGA+U Structure Optimization'>, 'mp-1365999': <CalcType.GGA_U_Static: 'GGA+U Static'>, 'mp-1848414': <CalcType.GGA_U_Static: 'GGA+U Static'>}"
mp-1204262,Na6 Ir2 S4 N4 Cl8 O20,0.0,"{'mp-1204262': <CalcType.GGA_Structure_Optimization: 'GGA Structure Optimization'>, 'mp-1352311': <CalcType.GGA_Static: 'GGA Static'>, 'mp-1897677': <CalcType.GGA_Static: 'GGA Static'>}"
mp-1212364,K4 Na4 Ti4 Si12 H8 O40,3.3986,"{'mp-1212364': <CalcType.GGA_Structure_Optimization: 'GGA Structure Optimization'>, 'mp-1238067': <CalcType.GGA_Structure_Optimization: 'GGA Structure Optimization'>, 'mp-1325474': <CalcType.GGA_Static: 'GGA Static'>, 'mp-1896687': <CalcType.GGA_Static: 'GGA Static'>, 'mp-1583869': <CalcType.GGA_NSCF_Line: 'GGA NSCF Line'>}"
mp-1214998,Co2 H80 C20 Br4 N40 O20,3.215899999999999,"{'mp-1214998': <CalcType.GGA_U_Structure_Optimization: 'GGA+U Structure Optimization'>, 'mp-1238142': <CalcType.GGA_U_Structure_Optimization: 'GGA+U Structure Optimization'>}"
mp-554559,Ni2 H64 C16 S8 N4 O20,3.233599999999999,"{'mp-840524': <CalcType.GGA_Static: 'GGA Static'>, 'mp-654904': <CalcType.GGA_Static: 'GGA Static'>, 'mp-841625': <CalcType.GGA_NSCF_Line: 'GGA NSCF Line'>, 'mp-1331877': <CalcType.GGA_U_Static: 'GGA+U Static'>, 'mp-1847434': <CalcType.GGA_U_Static: 'GGA+U Static'>, 'mp-1629390': <CalcType.GGA_U_NSCF_Line: 'GGA+U NSCF Line'>, 'mp-656075': <CalcType.GGA_U_Static: 'GGA+U Static'>, 'mp-600276': <CalcType.GGA_U_Structure_Optimization: 'GGA+U Structure Optimization'>, 'mp-659445': <CalcType.GGA_U_NSCF_Line: 'GGA+U NSCF Line'>, 'mp-669273': <CalcType.GGA_U_NSCF_Line: 'GGA+U NSCF Line'>, 'mp-579895': <CalcType.GGA_U_Structure_Optimization: 'GGA+U Structure Optimization'>, 'mp-554559': <CalcType.GGA_Structure_Optimization: 'GGA Structure Optimization'>, 'mp-842142': <CalcType.GGA_NSCF_Line: 'GGA NSCF Line'>}"
mp-556567,Ba4 H64 C16 S16 N8 O40,5.4967,"{'mp-1336039': <CalcType.GGA_Static: 'GGA Static'>, 'mp-681032': <CalcType.GGA_NSCF_Line: 'GGA NSCF Line'>, 'mp-657872': <CalcType.GGA_Static: 'GGA Static'>, 'mp-665682': <CalcType.GGA_NSCF_Line: 'GGA NSCF Line'>, 'mp-556567': <CalcType.GGA_Structure_Optimization: 'GGA Structure Optimization'>}"
mp-600234,Co2 H64 C16 S8 N4 O20,1.94,"{'mp-600523': <CalcType.GGA_U_Structure_Optimization: 'GGA+U Structure Optimization'>, 'mp-1335477': <CalcType.GGA_U_Static: 'GGA+U Static'>, 'mp-600234': <CalcType.GGA_Structure_Optimization: 'GGA Structure Optimization'>, 'mp-1850476': <CalcType.GGA_U_Static: 'GGA+U Static'>}"
mp-654887,Co2 H64 C16 S8 N4 O20,0.0811,"{'mp-656153': <CalcType.GGA_U_Structure_Optimization: 'GGA+U Structure Optimization'>, 'mp-905191': <CalcType.GGA_U_Static: 'GGA+U Static'>, 'mp-968973': <CalcType.GGA_U_NSCF_Line: 'GGA+U NSCF Line'>, 'mp-654887': <CalcType.GGA_Structure_Optimization: 'GGA Structure Optimization'>, 'mp-1338558': <CalcType.GGA_U_Static: 'GGA+U Static'>}"
mp-707720,Mg2 H80 C20 Br4 N40 O20,4.9823,"{'mp-1334946': <CalcType.GGA_Static: 'GGA Static'>, 'mp-849794': <CalcType.GGA_Structure_Optimization: 'GGA Structure Optimization'>, 'mp-729529': <CalcType.GGA_Static: 'GGA Static'>, 'mp-862330': <CalcType.GGA_NSCF_Line: 'GGA NSCF Line'>, 'mp-707720': <CalcType.GGA_Structure_Optimization: 'GGA Structure Optimization'>, 'mp-863461': <CalcType.GGA_NSCF_Line: 'GGA NSCF Line'>, 'mp-738244': <CalcType.GGA_NSCF_Line: 'GGA NSCF Line'>}"
mp-720266,Re8 H24 Pb4 C4 N8 O40,3.1482,"{'mp-733473': <CalcType.GGA_Static: 'GGA Static'>, 'mp-720266': <CalcType.GGA_Structure_Optimization: 'GGA Structure Optimization'>, 'mp-864237': <CalcType.GGA_NSCF_Line: 'GGA NSCF Line'>, 'mp-1328889': <CalcType.GGA_Static: 'GGA Static'>, 'mp-745683': <CalcType.GGA_NSCF_Line: 'GGA NSCF Line'>, 'mp-1850329': <CalcType.GGA_Static: 'GGA Static'>}"
mp-733848,Cd4 Re8 H32 C8 N16 O40,2.7859,"{'mp-735745': <CalcType.GGA_Static: 'GGA Static'>, 'mp-844398': <CalcType.GGA_NSCF_Line: 'GGA NSCF Line'>, 'mp-733848': <CalcType.GGA_Structure_Optimization: 'GGA Structure Optimization'>, 'mp-1334686': <CalcType.GGA_Static: 'GGA Static'>, 'mp-735877': <CalcType.GGA_NSCF_Line: 'GGA NSCF Line'>, 'mp-1629133': <CalcType.GGA_NSCF_Line: 'GGA NSCF Line'>}"
mp-729048,Co4 H64 Ru4 N40 Cl4 O40,1.1571,"{'mp-840886': <CalcType.GGA_NSCF_Line: 'GGA NSCF Line'>, 'mp-1334172': <CalcType.GGA_U_Static: 'GGA+U Static'>, 'mp-818471': <CalcType.GGA_U_Static: 'GGA+U Static'>, 'mp-744774': <CalcType.GGA_U_Structure_Optimization: 'GGA+U Structure Optimization'>, 'mp-729048': <CalcType.GGA_Static: 'GGA Static'>, 'mp-841855': <CalcType.GGA_NSCF_Line: 'GGA NSCF Line'>}"
mp-774283,Re8 H24 Pb4 C4 N8 O40,2.5282,"{'mp-787247': <CalcType.GGA_Static: 'GGA Static'>, 'mp-844459': <CalcType.GGA_NSCF_Line: 'GGA NSCF Line'>, 'mp-774283': <CalcType.GGA_Structure_Optimization: 'GGA Structure Optimization'>, 'mp-1337832': <CalcType.GGA_Static: 'GGA Static'>, 'mp-793166': <CalcType.GGA_NSCF_Line: 'GGA NSCF Line'>, 'mp-1851567': <CalcType.GGA_Static: 'GGA Static'>, 'mp-1628919': <CalcType.GGA_NSCF_Line: 'GGA NSCF Line'>}"
mp-1199672,Na2 Ga2 B2 P4 H6 O20,4.9585,"{'mp-1199672': <CalcType.GGA_Structure_Optimization: 'GGA Structure Optimization'>, 'mp-1843575': <CalcType.GGA_Static: 'GGA Static'>, 'mp-1982327': <CalcType.GGA_Static: 'GGA Static'>}"
mp-1199046,Ca2 Fe2 B2 P4 H4 O20,1.592,"{'mp-1199046': <CalcType.GGA_U_Structure_Optimization: 'GGA+U Structure Optimization'>, 'mp-1384110': <CalcType.GGA_U_Static: 'GGA+U Static'>, 'mp-1753812': <CalcType.GGA_U_NSCF_Uniform: 'GGA+U NSCF Uniform'>, 'mp-1842947': <CalcType.GGA_U_Static: 'GGA+U Static'>, 'mp-1620227': <CalcType.GGA_U_NSCF_Line: 'GGA+U NSCF Line'>, 'mp-2112432': <CalcType.GGA_U_NSCF_Line: 'GGA+U NSCF Line'>, 'mp-2304441': <CalcType.GGA_U_NSCF_Line: 'GGA+U NSCF Line'>}"
mp-1202117,Li2 Cu4 B2 P4 H4 O20,0.847299999999999,"{'mp-1202117': <CalcType.GGA_Structure_Optimization: 'GGA Structure Optimization'>, 'mp-1840949': <CalcType.GGA_Static: 'GGA Static'>, 'mp-1986550': <CalcType.GGA_Static: 'GGA Static'>}"
mp-1238646,Na2 Ga2 B2 P4 H6 O20,3.1513,"{'mp-1238646': <CalcType.GGA_Structure_Optimization: 'GGA Structure Optimization'>, 'mp-1816751': <CalcType.GGA_Static: 'GGA Static'>}"
mp-24646,Na2 Al2 B2 P4 H6 O20,5.7883000000000004,"{'mp-736378': <CalcType.GGA_NSCF_Line: 'GGA NSCF Line'>, 'mp-725177': <CalcType.GGA_Static: 'GGA Static'>, 'mp-24646': <CalcType.GGA_Structure_Optimization: 'GGA Structure Optimization'>, 'mp-1256355': <CalcType.GGA_Structure_Optimization: 'GGA Structure Optimization'>, 'mp-1258784': <CalcType.GGA_NMR_Electric_Field_Gradient: 'GGA NMR Electric Field Gradient'>, 'mp-1267940': <CalcType.GGA_NMR_Nuclear_Shielding: 'GGA NMR Nuclear Shielding'>, 'mp-1396631': <CalcType.GGA_Static: 'GGA Static'>, 'mp-1751762': <CalcType.GGA_NSCF_Uniform: 'GGA NSCF Uniform'>, 'mp-1840656': <CalcType.GGA_Static: 'GGA Static'>, 'mp-1622100': <CalcType.GGA_NSCF_Line: 'GGA NSCF Line'>, 'mp-746279': <CalcType.GGA_NSCF_Line: 'GGA NSCF Line'>, 'mp-2107343': <CalcType.GGA_NSCF_Line: 'GGA NSCF Line'>, 'mp-2305410': <CalcType.GGA_NSCF_Line: 'GGA NSCF Line'>}"
mp-505478,Na2 Fe2 B2 P4 H6 O20,1.9647000000000001,"{'mp-737147': <CalcType.GGA_U_Static: 'GGA+U Static'>, 'mp-745608': <CalcType.GGA_U_NSCF_Line: 'GGA+U NSCF Line'>, 'mp-633490': <CalcType.GGA_U_Structure_Optimization: 'GGA+U Structure Optimization'>, 'mp-541793': <CalcType.GGA_U_Structure_Optimization: 'GGA+U Structure Optimization'>, 'mp-505478': <CalcType.GGA_Structure_Optimization: 'GGA Structure Optimization'>, 'mp-1397226': <CalcType.GGA_U_Static: 'GGA+U Static'>, 'mp-1730314': <CalcType.GGA_U_NSCF_Uniform: 'GGA+U NSCF Uniform'>, 'mp-1841247': <CalcType.GGA_U_Static: 'GGA+U Static'>, 'mp-1618872': <CalcType.GGA_U_NSCF_Line: 'GGA+U NSCF Line'>, 'mp-747365': <CalcType.GGA_U_NSCF_Line: 'GGA+U NSCF Line'>, 'mp-2110966': <CalcType.GGA_U_NSCF_Line: 'GGA+U NSCF Line'>, 'mp-2305663': <CalcType.GGA_U_NSCF_Line: 'GGA+U NSCF Line'>}"
mp-510020,Na2 V2 B2 P4 H6 O20,0.32669999999999905,"{'mp-737158': <CalcType.GGA_U_Static: 'GGA+U Static'>, 'mp-745597': <CalcType.GGA_U_NSCF_Line: 'GGA+U NSCF Line'>, 'mp-633495': <CalcType.GGA_U_Structure_Optimization: 'GGA+U Structure Optimization'>, 'mp-542218': <CalcType.GGA_U_Structure_Optimization: 'GGA+U Structure Optimization'>, 'mp-510020': <CalcType.GGA_Structure_Optimization: 'GGA Structure Optimization'>, 'mp-1405834': <CalcType.GGA_U_Static: 'GGA+U Static'>, 'mp-1755086': <CalcType.GGA_U_NSCF_Uniform: 'GGA+U NSCF Uniform'>, 'mp-1842806': <CalcType.GGA_U_Static: 'GGA+U Static'>, 'mp-1619008': <CalcType.GGA_U_NSCF_Line: 'GGA+U NSCF Line'>, 'mp-747344': <CalcType.GGA_U_NSCF_Line: 'GGA+U NSCF Line'>, 'mp-2111548': <CalcType.GGA_U_NSCF_Line: 'GGA+U NSCF Line'>, 'mp-2305001': <CalcType.GGA_U_NSCF_Line: 'GGA+U NSCF Line'>}"
mp-23811,Ca2 Ni2 B2 P4 H6 O20,4.0377,"{'mp-818024': <CalcType.GGA_U_Static: 'GGA+U Static'>, 'mp-823906': <CalcType.GGA_U_NSCF_Line: 'GGA+U NSCF Line'>, 'mp-634343': <CalcType.GGA_U_Structure_Optimization: 'GGA+U Structure Optimization'>, 'mp-25716': <CalcType.GGA_U_Structure_Optimization: 'GGA+U Structure Optimization'>, 'mp-23811': <CalcType.GGA_Structure_Optimization: 'GGA Structure Optimization'>, 'mp-725342': <CalcType.GGA_Static: 'GGA Static'>, 'mp-840264': <CalcType.GGA_NSCF_Line: 'GGA NSCF Line'>, 'mp-1444132': <CalcType.GGA_U_Static: 'GGA+U Static'>, 'mp-1754415': <CalcType.GGA_U_NSCF_Uniform: 'GGA+U NSCF Uniform'>, 'mp-1841163': <CalcType.GGA_U_Static: 'GGA+U Static'>, 'mp-841394': <CalcType.GGA_NSCF_Line: 'GGA NSCF Line'>, 'mp-1619374': <CalcType.GGA_U_NSCF_Line: 'GGA+U NSCF Line'>, 'mp-824683': <CalcType.GGA_U_NSCF_Line: 'GGA+U NSCF Line'>, 'mp-2106319': <CalcType.GGA_U_NSCF_Line: 'GGA+U NSCF Line'>, 'mp-2302509': <CalcType.GGA_U_NSCF_Line: 'GGA+U NSCF Line'>}"
mp-1214820,Ca6 Si2 H28 C2 S2 O20,2.1723,"{'mp-1214820': <CalcType.GGA_Structure_Optimization: 'GGA Structure Optimization'>, 'mp-1327313': <CalcType.GGA_Static: 'GGA Static'>, 'mp-1886519': <CalcType.GGA_Static: 'GGA Static'>}"
mp-1182830,K4 Ca4 Co4 C24 S24 O40,0.006299999999999001,"{'mp-1182830': <CalcType.GGA_U_Structure_Optimization: 'GGA+U Structure Optimization'>, 'mp-1337893': <CalcType.GGA_U_Static: 'GGA+U Static'>}"
mp-1197796,K4 Ca4 Co4 C24 S24 O40,0.0,"{'mp-1197796': <CalcType.GGA_U_Structure_Optimization: 'GGA+U Structure Optimization'>, 'mp-1238724': <CalcType.GGA_U_Structure_Optimization: 'GGA+U Structure Optimization'>, 'mp-1336263': <CalcType.GGA_U_Static: 'GGA+U Static'>}"
mp-1199484,Li4 Cu8 B4 P8 H8 O40,0.6144000000000001,"{'mp-1199484': <CalcType.GGA_Structure_Optimization: 'GGA Structure Optimization'>, 'mp-1889368': <CalcType.GGA_Static: 'GGA Static'>, 'mp-1984527': <CalcType.GGA_Static: 'GGA Static'>}"
mp-1176607,Li2 Mn2 V2 P4 H4 O20,0.0,"{'mp-1176607': <CalcType.GGA_U_Structure_Optimization: 'GGA+U Structure Optimization'>, 'mp-1358156': <CalcType.GGA_U_Static: 'GGA+U Static'>, 'mp-1681083': <CalcType.GGA_U_NSCF_Uniform: 'GGA+U NSCF Uniform'>, 'mp-1772048': <CalcType.GGA_U_Static: 'GGA+U Static'>, 'mp-1835998': <CalcType.GGA_U_Static: 'GGA+U Static'>}"
mp-1177777,Li4 V2 Fe2 P4 H4 O20,1.7599,"{'mp-1177777': <CalcType.GGA_U_Structure_Optimization: 'GGA+U Structure Optimization'>, 'mp-1357068': <CalcType.GGA_U_Static: 'GGA+U Static'>, 'mp-1682534': <CalcType.GGA_U_NSCF_Uniform: 'GGA+U NSCF Uniform'>, 'mp-1841666': <CalcType.GGA_U_Static: 'GGA+U Static'>}"
mp-1177823,Li4 V2 Fe2 P4 H4 O20,0.42640000000000006,"{'mp-1177823': <CalcType.GGA_U_Structure_Optimization: 'GGA+U Structure Optimization'>, 'mp-1380043': <CalcType.GGA_U_Static: 'GGA+U Static'>}"
mp-1180427,Ni1 H44 C12 N8 Cl2 O10,1.4526,"{'mp-1180427': <CalcType.GGA_U_Structure_Optimization: 'GGA+U Structure Optimization'>, 'mp-1887704': <CalcType.GGA_U_Static: 'GGA+U Static'>}"
mp-1177768,Li4 V2 Fe2 P4 H4 O20,1.8858000000000001,"{'mp-1177768': <CalcType.GGA_U_Structure_Optimization: 'GGA+U Structure Optimization'>, 'mp-1275567': <CalcType.GGA_U_Static: 'GGA+U Static'>, 'mp-1304140': <CalcType.GGA_U_Structure_Optimization: 'GGA+U Structure Optimization'>, 'mp-1313109': <CalcType.GGA_U_Structure_Optimization: 'GGA+U Structure Optimization'>, 'mp-1302706': <CalcType.GGA_U_Static: 'GGA+U Static'>, 'mp-1313171': <CalcType.GGA_U_Static: 'GGA+U Static'>, 'mp-1322139': <CalcType.GGA_U_Static: 'GGA+U Static'>, 'mp-1307967': <CalcType.GGA_U_Static: 'GGA+U Static'>, 'mp-1302020': <CalcType.GGA_U_Structure_Optimization: 'GGA+U Structure Optimization'>, 'mp-1316215': <CalcType.GGA_U_Static: 'GGA+U Static'>, 'mp-1322205': <CalcType.GGA_U_Structure_Optimization: 'GGA+U Structure Optimization'>, 'mp-1310286': <CalcType.GGA_U_Static: 'GGA+U Static'>, 'mp-1314763': <CalcType.GGA_U_Structure_Optimization: 'GGA+U Structure Optimization'>, 'mp-1303585': <CalcType.GGA_U_Structure_Optimization: 'GGA+U Structure Optimization'>, 'mp-1320804': <CalcType.GGA_U_Static: 'GGA+U Static'>, 'mp-1305946': <CalcType.GGA_U_Static: 'GGA+U Static'>, 'mp-1317144': <CalcType.GGA_U_Structure_Optimization: 'GGA+U Structure Optimization'>, 'mp-1305964': <CalcType.GGA_U_Static: 'GGA+U Static'>, 'mp-1314924': <CalcType.GGA_U_Structure_Optimization: 'GGA+U Structure Optimization'>, 'mp-1303761': <CalcType.GGA_U_Static: 'GGA+U Static'>, 'mp-1302288': <CalcType.GGA_U_Structure_Optimization: 'GGA+U Structure Optimization'>, 'mp-1307561': <CalcType.GGA_U_Structure_Optimization: 'GGA+U Structure Optimization'>, 'mp-1315035': <CalcType.GGA_U_Static: 'GGA+U Static'>, 'mp-1319509': <CalcType.GGA_U_Structure_Optimization: 'GGA+U Structure Optimization'>, 'mp-1312890': <CalcType.GGA_U_Static: 'GGA+U Static'>, 'mp-1316631': <CalcType.GGA_U_Static: 'GGA+U Static'>, 'mp-1321977': <CalcType.GGA_U_Structure_Optimization: 'GGA+U Structure Optimization'>, 'mp-1318998': <CalcType.GGA_U_Structure_Optimization: 'GGA+U Structure Optimization'>, 'mp-1363008': <CalcType.GGA_U_Structure_Optimization: 'GGA+U Structure Optimization'>, 'mp-1376366': <CalcType.GGA_U_Static: 'GGA+U Static'>}"
mp-1177881,Li6 Mn3 V3 P6 H6 O30,0.915999999999999,"{'mp-1177881': <CalcType.GGA_U_Structure_Optimization: 'GGA+U Structure Optimization'>, 'mp-1349394': <CalcType.GGA_U_Static: 'GGA+U Static'>, 'mp-1768473': <CalcType.GGA_U_Static: 'GGA+U Static'>, 'mp-1869647': <CalcType.GGA_U_Static: 'GGA+U Static'>}"