Material ID,Composition,Band Gap,Calc Types
mp-1176381,Na4 Li2 Fe2 P2 C2 O14,3.7638,"{'mp-1176381': <CalcType.GGA_U_Structure_Optimization: 'GGA+U Structure Optimization'>, 'mp-1370751': <CalcType.GGA_U_Static: 'GGA+U Static'>, 'mp-1772052': <CalcType.GGA_U_Static: 'GGA+U Static'>, 'mp-1807853': <CalcType.GGA_U_Static: 'GGA+U Static'>}"
mp-1176400,Na8 Li4 Fe4 P4 C4 O28,3.8095,"{'mp-1176400': <CalcType.GGA_U_Structure_Optimization: 'GGA+U Structure Optimization'>, 'mp-1352812': <CalcType.GGA_U_Static: 'GGA+U Static'>, 'mp-1881751': <CalcType.GGA_U_Static: 'GGA+U Static'>}"
mp-1176546,Na8 Li4 Mn4 P4 C4 O28,3.428,"{'mp-1176546': <CalcType.GGA_U_Structure_Optimization: 'GGA+U Structure Optimization'>, 'mp-1351923': <CalcType.GGA_U_Static: 'GGA+U Static'>, 'mp-1881657': <CalcType.GGA_U_Static: 'GGA+U Static'>}"
mp-1101482,Na4 Li8 Fe4 P4 C4 O28,3.991799999999999,"{'mp-1101482': <CalcType.GGA_U_Structure_Optimization: 'GGA+U Structure Optimization'>, 'mp-1352248': <CalcType.GGA_U_Static: 'GGA+U Static'>, 'mp-1887060': <CalcType.GGA_U_Static: 'GGA+U Static'>, 'mp-1680397': <CalcType.GGA_U_NSCF_Uniform: 'GGA+U NSCF Uniform'>}"
mp-1176392,Na8 Li4 Fe4 P4 C4 O28,1.4357,"{'mp-1176392': <CalcType.GGA_U_Structure_Optimization: 'GGA+U Structure Optimization'>, 'mp-1351614': <CalcType.GGA_U_Static: 'GGA+U Static'>, 'mp-1878214': <CalcType.GGA_U_Static: 'GGA+U Static'>, 'mp-1681305': <CalcType.GGA_U_NSCF_Uniform: 'GGA+U NSCF Uniform'>}"
mp-1101703,Na4 Li8 Fe4 P4 C4 O28,2.024399999999999,"{'mp-1101703': <CalcType.GGA_U_Structure_Optimization: 'GGA+U Structure Optimization'>, 'mp-1350955': <CalcType.GGA_U_Static: 'GGA+U Static'>, 'mp-1877131': <CalcType.GGA_U_Static: 'GGA+U Static'>, 'mp-1679406': <CalcType.GGA_U_NSCF_Uniform: 'GGA+U NSCF Uniform'>}"
mp-1101716,Na4 Li8 Fe4 P4 C4 O28,1.3709,"{'mp-1101716': <CalcType.GGA_U_Structure_Optimization: 'GGA+U Structure Optimization'>, 'mp-1352531': <CalcType.GGA_U_Static: 'GGA+U Static'>, 'mp-1936618': <CalcType.GGA_U_Static: 'GGA+U Static'>, 'mp-1686074': <CalcType.GGA_U_NSCF_Uniform: 'GGA+U NSCF Uniform'>}"
mp-1667139,Na4 Li8 Fe4 P4 C4 O28,3.9832,"{'mp-1667139': <CalcType.GGA_U_Structure_Optimization: 'GGA+U Structure Optimization'>, 'mp-1884019': <CalcType.GGA_U_Static: 'GGA+U Static'>}"
mp-2232789,Na2 Mg1 Mn1 P2 O7 F3,1.5187,"{'mp-2233319': <CalcType.GGA_U_Structure_Optimization: 'GGA+U Structure Optimization'>, 'mp-2232789': <CalcType.GGA_U_Static: 'GGA+U Static'>}"
mp-720948,Na4 Ca8 Lu4 Si8 O28 F8,1.2056,"{'mp-734080': <CalcType.GGA_Static: 'GGA Static'>, 'mp-738378': <CalcType.GGA_NSCF_Line: 'GGA NSCF Line'>, 'mp-720948': <CalcType.GGA_Structure_Optimization: 'GGA Structure Optimization'>, 'mp-1324359': <CalcType.GGA_Static: 'GGA Static'>, 'mp-745924': <CalcType.GGA_NSCF_Line: 'GGA NSCF Line'>, 'mp-1897239': <CalcType.GGA_Static: 'GGA Static'>}"
mp-756734,Na4 Li2 Mn2 P2 C2 O14,3.6664000000000003,"{'mp-803435': <CalcType.GGA_U_Static: 'GGA+U Static'>, 'mp-811725': <CalcType.GGA_U_NSCF_Line: 'GGA+U NSCF Line'>, 'mp-770672': <CalcType.GGA_U_Structure_Optimization: 'GGA+U Structure Optimization'>, 'mp-756734': <CalcType.GGA_Structure_Optimization: 'GGA Structure Optimization'>, 'mp-1375952': <CalcType.GGA_U_Static: 'GGA+U Static'>, 'mp-832993': <CalcType.GGA_NSCF_Line: 'GGA NSCF Line'>, 'mp-812347': <CalcType.GGA_U_NSCF_Line: 'GGA+U NSCF Line'>, 'mp-1574247': <CalcType.GGA_U_Structure_Optimization: 'GGA+U Structure Optimization'>, 'mp-1653197': <CalcType.GGA_U_Static: 'GGA+U Static'>, 'mp-1806960': <CalcType.GGA_U_Static: 'GGA+U Static'>, 'mp-828622': <CalcType.GGA_Static: 'GGA Static'>, 'mp-832212': <CalcType.GGA_NSCF_Line: 'GGA NSCF Line'>}"
mp-771007,Na4 Li8 Fe4 P4 C4 O28,4.0433,"{'mp-771424': <CalcType.GGA_U_Structure_Optimization: 'GGA+U Structure Optimization'>, 'mp-803681': <CalcType.GGA_U_Static: 'GGA+U Static'>, 'mp-811998': <CalcType.GGA_U_NSCF_Line: 'GGA+U NSCF Line'>, 'mp-771007': <CalcType.GGA_Structure_Optimization: 'GGA Structure Optimization'>, 'mp-1343406': <CalcType.GGA_U_Static: 'GGA+U Static'>, 'mp-812595': <CalcType.GGA_U_NSCF_Line: 'GGA+U NSCF Line'>, 'mp-1579770': <CalcType.GGA_U_Structure_Optimization: 'GGA+U Structure Optimization'>, 'mp-1644997': <CalcType.GGA_U_Static: 'GGA+U Static'>, 'mp-1650138': <CalcType.GGA_U_Structure_Optimization: 'GGA+U Structure Optimization'>, 'mp-1652267': <CalcType.GGA_U_Static: 'GGA+U Static'>, 'mp-1652628': <CalcType.GGA_U_Structure_Optimization: 'GGA+U Structure Optimization'>, 'mp-1653346': <CalcType.GGA_U_Static: 'GGA+U Static'>, 'mp-1651575': <CalcType.GGA_U_Structure_Optimization: 'GGA+U Structure Optimization'>, 'mp-1653172': <CalcType.GGA_U_Structure_Optimization: 'GGA+U Structure Optimization'>, 'mp-1652648': <CalcType.GGA_U_Static: 'GGA+U Static'>, 'mp-1652334': <CalcType.GGA_U_Structure_Optimization: 'GGA+U Structure Optimization'>, 'mp-1654283': <CalcType.GGA_U_Structure_Optimization: 'GGA+U Structure Optimization'>, 'mp-1643549': <CalcType.GGA_U_Structure_Optimization: 'GGA+U Structure Optimization'>, 'mp-1667657': <CalcType.GGA_U_Structure_Optimization: 'GGA+U Structure Optimization'>, 'mp-1666663': <CalcType.GGA_U_Structure_Optimization: 'GGA+U Structure Optimization'>, 'mp-1666835': <CalcType.GGA_U_Structure_Optimization: 'GGA+U Structure Optimization'>, 'mp-1667253': <CalcType.GGA_U_Structure_Optimization: 'GGA+U Structure Optimization'>, 'mp-1979142': <CalcType.GGA_U_Static: 'GGA+U Static'>, 'mp-1979157': <CalcType.GGA_U_Static: 'GGA+U Static'>, 'mp-1984668': <CalcType.GGA_U_Static: 'GGA+U Static'>, 'mp-1984398': <CalcType.GGA_U_Static: 'GGA+U Static'>, 'mp-1986731': <CalcType.GGA_U_Static: 'GGA+U Static'>, 'mp-1983807': <CalcType.GGA_U_Static: 'GGA+U Static'>, 'mp-1982527': <CalcType.GGA_U_Static: 'GGA+U Static'>, 'mp-1982000': <CalcType.GGA_U_Static: 'GGA+U Static'>, 'mp-1987792': <CalcType.GGA_U_Static: 'GGA+U Static'>, 'mp-885777': <CalcType.GGA_Static: 'GGA Static'>}"
mp-772501,Na8 Li4 Mn4 P4 C4 O28,3.7256,"{'mp-773686': <CalcType.GGA_U_Structure_Optimization: 'GGA+U Structure Optimization'>, 'mp-804369': <CalcType.GGA_U_Static: 'GGA+U Static'>, 'mp-813315': <CalcType.GGA_U_NSCF_Line: 'GGA+U NSCF Line'>, 'mp-772501': <CalcType.GGA_Structure_Optimization: 'GGA Structure Optimization'>, 'mp-1351811': <CalcType.GGA_U_Static: 'GGA+U Static'>, 'mp-833466': <CalcType.GGA_NSCF_Line: 'GGA NSCF Line'>, 'mp-814015': <CalcType.GGA_U_NSCF_Line: 'GGA+U NSCF Line'>, 'mp-1770981': <CalcType.GGA_U_Static: 'GGA+U Static'>, 'mp-1937420': <CalcType.GGA_U_Static: 'GGA+U Static'>, 'mp-828856': <CalcType.GGA_Static: 'GGA Static'>, 'mp-832693': <CalcType.GGA_NSCF_Line: 'GGA NSCF Line'>}"
mp-772651,Na4 Li8 Mn4 P4 C4 O28,3.7868,"{'mp-804414': <CalcType.GGA_U_Static: 'GGA+U Static'>, 'mp-813488': <CalcType.GGA_U_NSCF_Line: 'GGA+U NSCF Line'>, 'mp-773802': <CalcType.GGA_U_Structure_Optimization: 'GGA+U Structure Optimization'>, 'mp-772651': <CalcType.GGA_Structure_Optimization: 'GGA Structure Optimization'>, 'mp-1349071': <CalcType.GGA_U_Static: 'GGA+U Static'>, 'mp-833508': <CalcType.GGA_NSCF_Line: 'GGA NSCF Line'>, 'mp-814258': <CalcType.GGA_U_NSCF_Line: 'GGA+U NSCF Line'>, 'mp-1772123': <CalcType.GGA_U_Static: 'GGA+U Static'>, 'mp-1881722': <CalcType.GGA_U_Static: 'GGA+U Static'>, 'mp-829661': <CalcType.GGA_Static: 'GGA Static'>, 'mp-786549': <CalcType.GGA_Static: 'GGA Static'>, 'mp-832745': <CalcType.GGA_NSCF_Line: 'GGA NSCF Line'>}"
mp-773122,Na8 Li4 Fe4 P4 C4 O28,3.753299999999999,"{'mp-773690': <CalcType.GGA_U_Structure_Optimization: 'GGA+U Structure Optimization'>, 'mp-807978': <CalcType.GGA_U_Static: 'GGA+U Static'>, 'mp-813301': <CalcType.GGA_U_NSCF_Line: 'GGA+U NSCF Line'>, 'mp-773122': <CalcType.GGA_Structure_Optimization: 'GGA Structure Optimization'>, 'mp-1352010': <CalcType.GGA_U_Static: 'GGA+U Static'>, 'mp-814006': <CalcType.GGA_U_NSCF_Line: 'GGA+U NSCF Line'>, 'mp-1655501': <CalcType.GGA_U_Static: 'GGA+U Static'>}"
mp-772567,Na8 Li4 Mn4 P4 C4 O28,3.7406,"{'mp-773726': <CalcType.GGA_U_Structure_Optimization: 'GGA+U Structure Optimization'>, 'mp-813314': <CalcType.GGA_U_NSCF_Line: 'GGA+U NSCF Line'>, 'mp-804403': <CalcType.GGA_U_Static: 'GGA+U Static'>, 'mp-772567': <CalcType.GGA_Structure_Optimization: 'GGA Structure Optimization'>, 'mp-1349903': <CalcType.GGA_U_Static: 'GGA+U Static'>, 'mp-814025': <CalcType.GGA_U_NSCF_Line: 'GGA+U NSCF Line'>, 'mp-833474': <CalcType.GGA_NSCF_Line: 'GGA NSCF Line'>, 'mp-1772214': <CalcType.GGA_U_Static: 'GGA+U Static'>, 'mp-1938443': <CalcType.GGA_U_Static: 'GGA+U Static'>, 'mp-828863': <CalcType.GGA_Static: 'GGA Static'>, 'mp-832704': <CalcType.GGA_NSCF_Line: 'GGA NSCF Line'>}"
mp-772618,Na4 Li8 Mn4 P4 C4 O28,3.802399999999999,"{'mp-804357': <CalcType.GGA_U_Static: 'GGA+U Static'>, 'mp-813299': <CalcType.GGA_U_NSCF_Line: 'GGA+U NSCF Line'>, 'mp-773546': <CalcType.GGA_U_Structure_Optimization: 'GGA+U Structure Optimization'>, 'mp-772618': <CalcType.GGA_Structure_Optimization: 'GGA Structure Optimization'>, 'mp-832674': <CalcType.GGA_NSCF_Line: 'GGA NSCF Line'>, 'mp-1352953': <CalcType.GGA_U_Static: 'GGA+U Static'>, 'mp-833455': <CalcType.GGA_NSCF_Line: 'GGA NSCF Line'>, 'mp-813994': <CalcType.GGA_U_NSCF_Line: 'GGA+U NSCF Line'>, 'mp-1875602': <CalcType.GGA_U_Static: 'GGA+U Static'>, 'mp-828832': <CalcType.GGA_Static: 'GGA Static'>}"
mp-772411,Na8 Li4 Mn4 P4 C4 O28,3.6965,"{'mp-805107': <CalcType.GGA_U_Static: 'GGA+U Static'>, 'mp-774267': <CalcType.GGA_U_Structure_Optimization: 'GGA+U Structure Optimization'>, 'mp-813680': <CalcType.GGA_U_NSCF_Line: 'GGA+U NSCF Line'>, 'mp-772411': <CalcType.GGA_Structure_Optimization: 'GGA Structure Optimization'>, 'mp-1349476': <CalcType.GGA_U_Static: 'GGA+U Static'>, 'mp-833461': <CalcType.GGA_NSCF_Line: 'GGA NSCF Line'>, 'mp-814459': <CalcType.GGA_U_NSCF_Line: 'GGA+U NSCF Line'>, 'mp-1771433': <CalcType.GGA_U_Static: 'GGA+U Static'>, 'mp-1935940': <CalcType.GGA_U_Static: 'GGA+U Static'>, 'mp-828846': <CalcType.GGA_Static: 'GGA Static'>, 'mp-832680': <CalcType.GGA_NSCF_Line: 'GGA NSCF Line'>}"
mp-772634,Na4 Li8 Mn4 P4 C4 O28,3.7745,"{'mp-773743': <CalcType.GGA_U_Structure_Optimization: 'GGA+U Structure Optimization'>, 'mp-804388': <CalcType.GGA_U_Static: 'GGA+U Static'>, 'mp-813312': <CalcType.GGA_U_NSCF_Line: 'GGA+U NSCF Line'>, 'mp-772634': <CalcType.GGA_Structure_Optimization: 'GGA Structure Optimization'>, 'mp-1349959': <CalcType.GGA_U_Static: 'GGA+U Static'>, 'mp-833506': <CalcType.GGA_NSCF_Line: 'GGA NSCF Line'>, 'mp-814031': <CalcType.GGA_U_NSCF_Line: 'GGA+U NSCF Line'>, 'mp-1770463': <CalcType.GGA_U_Static: 'GGA+U Static'>, 'mp-1938040': <CalcType.GGA_U_Static: 'GGA+U Static'>, 'mp-829611': <CalcType.GGA_Static: 'GGA Static'>, 'mp-832787': <CalcType.GGA_NSCF_Line: 'GGA NSCF Line'>}"
mp-772499,Na8 Li4 Mn4 P4 C4 O28,3.695699999999999,"{'mp-804363': <CalcType.GGA_U_Static: 'GGA+U Static'>, 'mp-813300': <CalcType.GGA_U_NSCF_Line: 'GGA+U NSCF Line'>, 'mp-773685': <CalcType.GGA_U_Structure_Optimization: 'GGA+U Structure Optimization'>, 'mp-772499': <CalcType.GGA_Structure_Optimization: 'GGA Structure Optimization'>, 'mp-1353682': <CalcType.GGA_U_Static: 'GGA+U Static'>, 'mp-833465': <CalcType.GGA_NSCF_Line: 'GGA NSCF Line'>, 'mp-814003': <CalcType.GGA_U_NSCF_Line: 'GGA+U NSCF Line'>, 'mp-1773460': <CalcType.GGA_U_Static: 'GGA+U Static'>, 'mp-1888037': <CalcType.GGA_U_Static: 'GGA+U Static'>, 'mp-832694': <CalcType.GGA_NSCF_Line: 'GGA NSCF Line'>, 'mp-828851': <CalcType.GGA_Static: 'GGA Static'>}"
mp-772519,Na4 Li8 Mn4 P4 C4 O28,3.7447,"{'mp-805150': <CalcType.GGA_U_Static: 'GGA+U Static'>, 'mp-774265': <CalcType.GGA_U_Structure_Optimization: 'GGA+U Structure Optimization'>, 'mp-813675': <CalcType.GGA_U_NSCF_Line: 'GGA+U NSCF Line'>, 'mp-772519': <CalcType.GGA_Structure_Optimization: 'GGA Structure Optimization'>, 'mp-832689': <CalcType.GGA_NSCF_Line: 'GGA NSCF Line'>, 'mp-1353668': <CalcType.GGA_U_Static: 'GGA+U Static'>, 'mp-833468': <CalcType.GGA_NSCF_Line: 'GGA NSCF Line'>, 'mp-814457': <CalcType.GGA_U_NSCF_Line: 'GGA+U NSCF Line'>, 'mp-1887017': <CalcType.GGA_U_Static: 'GGA+U Static'>, 'mp-828857': <CalcType.GGA_Static: 'GGA Static'>}"
mp-772717,Na4 Li8 Fe4 P4 C4 O28,4.0107,"{'mp-804706': <CalcType.GGA_U_Static: 'GGA+U Static'>, 'mp-773689': <CalcType.GGA_U_Structure_Optimization: 'GGA+U Structure Optimization'>, 'mp-813388': <CalcType.GGA_U_NSCF_Line: 'GGA+U NSCF Line'>, 'mp-772717': <CalcType.GGA_Structure_Optimization: 'GGA Structure Optimization'>, 'mp-1348999': <CalcType.GGA_U_Static: 'GGA+U Static'>, 'mp-814035': <CalcType.GGA_U_NSCF_Line: 'GGA+U NSCF Line'>, 'mp-1886856': <CalcType.GGA_U_Static: 'GGA+U Static'>}"
mp-771039,Na2 Li4 Mn2 P2 C2 O14,3.7605,"{'mp-803724': <CalcType.GGA_U_Static: 'GGA+U Static'>, 'mp-812018': <CalcType.GGA_U_NSCF_Line: 'GGA+U NSCF Line'>, 'mp-771493': <CalcType.GGA_U_Structure_Optimization: 'GGA+U Structure Optimization'>, 'mp-771039': <CalcType.GGA_Structure_Optimization: 'GGA Structure Optimization'>, 'mp-1343318': <CalcType.GGA_U_Static: 'GGA+U Static'>, 'mp-833222': <CalcType.GGA_NSCF_Line: 'GGA NSCF Line'>, 'mp-812626': <CalcType.GGA_U_NSCF_Line: 'GGA+U NSCF Line'>, 'mp-1652120': <CalcType.GGA_U_Static: 'GGA+U Static'>, 'mp-1651110': <CalcType.GGA_U_Structure_Optimization: 'GGA+U Structure Optimization'>, 'mp-1653964': <CalcType.GGA_U_Static: 'GGA+U Static'>, 'mp-1667232': <CalcType.GGA_U_Structure_Optimization: 'GGA+U Structure Optimization'>, 'mp-1667493': <CalcType.GGA_U_Structure_Optimization: 'GGA+U Structure Optimization'>, 'mp-1666364': <CalcType.GGA_U_Static: 'GGA+U Static'>, 'mp-1809117': <CalcType.GGA_U_Static: 'GGA+U Static'>, 'mp-832510': <CalcType.GGA_NSCF_Line: 'GGA NSCF Line'>}"
mp-772558,Na4 Li8 Mn4 P4 C4 O28,3.8061,"{'mp-773445': <CalcType.GGA_U_Structure_Optimization: 'GGA+U Structure Optimization'>, 'mp-804318': <CalcType.GGA_U_Static: 'GGA+U Static'>, 'mp-813234': <CalcType.GGA_U_NSCF_Line: 'GGA+U NSCF Line'>, 'mp-772558': <CalcType.GGA_Structure_Optimization: 'GGA Structure Optimization'>, 'mp-832675': <CalcType.GGA_NSCF_Line: 'GGA NSCF Line'>, 'mp-1349186': <CalcType.GGA_U_Static: 'GGA+U Static'>, 'mp-833454': <CalcType.GGA_NSCF_Line: 'GGA NSCF Line'>, 'mp-813964': <CalcType.GGA_U_NSCF_Line: 'GGA+U NSCF Line'>, 'mp-1770414': <CalcType.GGA_U_Static: 'GGA+U Static'>, 'mp-1888644': <CalcType.GGA_U_Static: 'GGA+U Static'>, 'mp-828830': <CalcType.GGA_Static: 'GGA Static'>}"
mp-772927,Na4 Li8 Fe4 P4 C4 O28,3.9249,"{'mp-1101721': <CalcType.GGA_U_Structure_Optimization: 'GGA+U Structure Optimization'>, 'mp-772927': <CalcType.GGA_Structure_Optimization: 'GGA Structure Optimization'>, 'mp-1350617': <CalcType.GGA_U_Static: 'GGA+U Static'>, 'mp-1888606': <CalcType.GGA_U_Static: 'GGA+U Static'>}"
mp-773033,Na8 Li4 Fe4 P4 C4 O28,0.002499999999999,"{'mp-773705': <CalcType.GGA_U_Structure_Optimization: 'GGA+U Structure Optimization'>, 'mp-804738': <CalcType.GGA_U_Static: 'GGA+U Static'>, 'mp-813311': <CalcType.GGA_U_NSCF_Line: 'GGA+U NSCF Line'>, 'mp-773033': <CalcType.GGA_Structure_Optimization: 'GGA Structure Optimization'>, 'mp-1351210': <CalcType.GGA_U_Static: 'GGA+U Static'>, 'mp-814021': <CalcType.GGA_U_NSCF_Line: 'GGA+U NSCF Line'>, 'mp-1887520': <CalcType.GGA_U_Static: 'GGA+U Static'>, 'mp-1680732': <CalcType.GGA_U_NSCF_Uniform: 'GGA+U NSCF Uniform'>}"
mp-772234,Na4 Li8 Mn4 P4 C4 O28,3.7901,"{'mp-804216': <CalcType.GGA_U_Static: 'GGA+U Static'>, 'mp-813176': <CalcType.GGA_U_NSCF_Line: 'GGA+U NSCF Line'>, 'mp-773404': <CalcType.GGA_U_Structure_Optimization: 'GGA+U Structure Optimization'>, 'mp-772234': <CalcType.GGA_Structure_Optimization: 'GGA Structure Optimization'>, 'mp-1352128': <CalcType.GGA_U_Static: 'GGA+U Static'>, 'mp-833425': <CalcType.GGA_NSCF_Line: 'GGA NSCF Line'>, 'mp-813925': <CalcType.GGA_U_NSCF_Line: 'GGA+U NSCF Line'>, 'mp-1772546': <CalcType.GGA_U_Static: 'GGA+U Static'>, 'mp-1890018': <CalcType.GGA_U_Static: 'GGA+U Static'>, 'mp-832656': <CalcType.GGA_NSCF_Line: 'GGA NSCF Line'>}"
mp-772313,Na4 Li8 Mn4 P4 C4 O28,3.7473,"{'mp-804243': <CalcType.GGA_U_Static: 'GGA+U Static'>, 'mp-773350': <CalcType.GGA_U_Structure_Optimization: 'GGA+U Structure Optimization'>, 'mp-813181': <CalcType.GGA_U_NSCF_Line: 'GGA+U NSCF Line'>, 'mp-772313': <CalcType.GGA_Structure_Optimization: 'GGA Structure Optimization'>, 'mp-1352064': <CalcType.GGA_U_Static: 'GGA+U Static'>, 'mp-833435': <CalcType.GGA_NSCF_Line: 'GGA NSCF Line'>, 'mp-813928': <CalcType.GGA_U_NSCF_Line: 'GGA+U NSCF Line'>, 'mp-1770461': <CalcType.GGA_U_Static: 'GGA+U Static'>, 'mp-1884203': <CalcType.GGA_U_Static: 'GGA+U Static'>, 'mp-786364': <CalcType.GGA_Static: 'GGA Static'>, 'mp-828803': <CalcType.GGA_Static: 'GGA Static'>, 'mp-832638': <CalcType.GGA_NSCF_Line: 'GGA NSCF Line'>}"
mp-772930,Na8 Li4 Fe4 P4 C4 O28,3.843899999999999,"{'mp-773940': <CalcType.GGA_U_Structure_Optimization: 'GGA+U Structure Optimization'>, 'mp-804752': <CalcType.GGA_U_Static: 'GGA+U Static'>, 'mp-813523': <CalcType.GGA_U_NSCF_Line: 'GGA+U NSCF Line'>, 'mp-772930': <CalcType.GGA_Structure_Optimization: 'GGA Structure Optimization'>, 'mp-1353107': <CalcType.GGA_U_Static: 'GGA+U Static'>, 'mp-814266': <CalcType.GGA_U_NSCF_Line: 'GGA+U NSCF Line'>, 'mp-1890337': <CalcType.GGA_U_Static: 'GGA+U Static'>}"
mp-772414,Na8 Li4 Mn4 P4 C4 O28,3.6817,"{'mp-774266': <CalcType.GGA_U_Structure_Optimization: 'GGA+U Structure Optimization'>, 'mp-805103': <CalcType.GGA_U_Static: 'GGA+U Static'>, 'mp-813677': <CalcType.GGA_U_NSCF_Line: 'GGA+U NSCF Line'>, 'mp-772414': <CalcType.GGA_Structure_Optimization: 'GGA Structure Optimization'>, 'mp-1351668': <CalcType.GGA_U_Static: 'GGA+U Static'>, 'mp-833459': <CalcType.GGA_NSCF_Line: 'GGA NSCF Line'>, 'mp-814455': <CalcType.GGA_U_NSCF_Line: 'GGA+U NSCF Line'>, 'mp-1771311': <CalcType.GGA_U_Static: 'GGA+U Static'>, 'mp-1875447': <CalcType.GGA_U_Static: 'GGA+U Static'>, 'mp-828847': <CalcType.GGA_Static: 'GGA Static'>, 'mp-832681': <CalcType.GGA_NSCF_Line: 'GGA NSCF Line'>}"
mp-772500,Na8 Li4 Mn4 P4 C4 O28,3.6969000000000003,"{'mp-773681': <CalcType.GGA_U_Structure_Optimization: 'GGA+U Structure Optimization'>, 'mp-804364': <CalcType.GGA_U_Static: 'GGA+U Static'>, 'mp-813306': <CalcType.GGA_U_NSCF_Line: 'GGA+U NSCF Line'>, 'mp-832684': <CalcType.GGA_NSCF_Line: 'GGA NSCF Line'>, 'mp-772500': <CalcType.GGA_Structure_Optimization: 'GGA Structure Optimization'>, 'mp-1349869': <CalcType.GGA_U_Static: 'GGA+U Static'>, 'mp-814004': <CalcType.GGA_U_NSCF_Line: 'GGA+U NSCF Line'>, 'mp-833463': <CalcType.GGA_NSCF_Line: 'GGA NSCF Line'>, 'mp-1870346': <CalcType.GGA_U_Static: 'GGA+U Static'>, 'mp-828849': <CalcType.GGA_Static: 'GGA Static'>}"
mp-772718,Na4 Li8 Fe4 P4 C4 O28,3.4567,"{'mp-804745': <CalcType.GGA_U_Static: 'GGA+U Static'>, 'mp-773811': <CalcType.GGA_U_Structure_Optimization: 'GGA+U Structure Optimization'>, 'mp-813469': <CalcType.GGA_U_NSCF_Line: 'GGA+U NSCF Line'>, 'mp-772718': <CalcType.GGA_Structure_Optimization: 'GGA Structure Optimization'>, 'mp-1349271': <CalcType.GGA_U_Static: 'GGA+U Static'>, 'mp-814254': <CalcType.GGA_U_NSCF_Line: 'GGA+U NSCF Line'>, 'mp-1887983': <CalcType.GGA_U_Static: 'GGA+U Static'>, 'mp-1681040': <CalcType.GGA_U_NSCF_Uniform: 'GGA+U NSCF Uniform'>}"
mp-1196277,U2 H8 C4 Se2 N8 O14,0.49760000000000004,"{'mp-1196277': <CalcType.GGA_Structure_Optimization: 'GGA Structure Optimization'>, 'mp-1358513': <CalcType.GGA_Static: 'GGA Static'>, 'mp-1881833': <CalcType.GGA_Static: 'GGA Static'>}"