Material ID,Composition,Band Gap,Calc Types
mp-2228604,Sr2 Y1 Mg1 Tl1 Cu2 O7,0.0,"{'mp-2228902': <CalcType.GGA_Structure_Optimization: 'GGA Structure Optimization'>, 'mp-2228604': <CalcType.GGA_Structure_Optimization: 'GGA Structure Optimization'>}"
mp-1235043,Ba2 Li1 Sm1 Co1 Cu2 O7,0.0,"{'mp-1235043': <CalcType.GGA_U_Structure_Optimization: 'GGA+U Structure Optimization'>, 'mp-1236670': <CalcType.GGA_U_Static: 'GGA+U Static'>}"
mp-2241473,Ba2 Y1 Mg1 Tl1 Cu2 O7,0.0,{'mp-2241473': <CalcType.GGA_Structure_Optimization: 'GGA Structure Optimization'>}
mp-1224471,Li28 Ce10 Si22 N38 O14 F4,0.0,{'mp-1224471': <CalcType.GGA_Structure_Optimization: 'GGA Structure Optimization'>}
mp-1223420,Li28 Nd10 Si22 N38 O14 F4,2.7504,"{'mp-1223420': <CalcType.GGA_Structure_Optimization: 'GGA Structure Optimization'>, 'mp-1366101': <CalcType.GGA_Static: 'GGA Static'>}"
mp-1223573,K2 Ba2 V4 Cu2 Cl2 O14,0.28390000000000004,"{'mp-1223573': <CalcType.GGA_U_Structure_Optimization: 'GGA+U Structure Optimization'>, 'mp-1344765': <CalcType.GGA_U_Static: 'GGA+U Static'>, 'mp-1684220': <CalcType.GGA_U_NSCF_Uniform: 'GGA+U NSCF Uniform'>, 'mp-1821685': <CalcType.GGA_U_Static: 'GGA+U Static'>}"
mp-2228476,Sr2 Y1 Mg1 Tl1 Cu2 O7,0.0,{'mp-2228476': <CalcType.GGA_Structure_Optimization: 'GGA Structure Optimization'>}
mp-1193369,Ti2 Pb4 Se4 Cl2 O14 F2,2.4534000000000002,"{'mp-1193369': <CalcType.GGA_Structure_Optimization: 'GGA Structure Optimization'>, 'mp-1820307': <CalcType.GGA_Static: 'GGA Static'>, 'mp-1983003': <CalcType.GGA_Static: 'GGA Static'>}"
mp-755754,Na4 Li8 Mn4 P4 C4 O28,3.9295,"{'mp-856333': <CalcType.GGA_U_Static: 'GGA+U Static'>, 'mp-857276': <CalcType.GGA_U_NSCF_Line: 'GGA+U NSCF Line'>, 'mp-851038': <CalcType.GGA_U_Structure_Optimization: 'GGA+U Structure Optimization'>, 'mp-1117869': <CalcType.GGA_U_DFPT_Dielectric: 'GGA+U DFPT Dielectric'>, 'mp-755754': <CalcType.GGA_Structure_Optimization: 'GGA Structure Optimization'>, 'mp-831143': <CalcType.GGA_Static: 'GGA Static'>, 'mp-834252': <CalcType.GGA_NSCF_Line: 'GGA NSCF Line'>, 'mp-1340407': <CalcType.GGA_U_Static: 'GGA+U Static'>, 'mp-1576575': <CalcType.GGA_U_Structure_Optimization: 'GGA+U Structure Optimization'>, 'mp-1653484': <CalcType.GGA_U_Static: 'GGA+U Static'>, 'mp-1653876': <CalcType.GGA_U_Static: 'GGA+U Static'>, 'mp-1653747': <CalcType.GGA_U_Structure_Optimization: 'GGA+U Structure Optimization'>, 'mp-1653756': <CalcType.GGA_U_Structure_Optimization: 'GGA+U Structure Optimization'>, 'mp-1651638': <CalcType.GGA_U_Structure_Optimization: 'GGA+U Structure Optimization'>, 'mp-1936986': <CalcType.GGA_U_Static: 'GGA+U Static'>, 'mp-834843': <CalcType.GGA_NSCF_Line: 'GGA NSCF Line'>}"
mp-760344,Na4 Li8 Co4 P4 C4 O28,2.9478,"{'mp-764251': <CalcType.GGA_U_Structure_Optimization: 'GGA+U Structure Optimization'>, 'mp-799275': <CalcType.GGA_U_Static: 'GGA+U Static'>, 'mp-800060': <CalcType.GGA_U_NSCF_Line: 'GGA+U NSCF Line'>, 'mp-760344': <CalcType.GGA_Structure_Optimization: 'GGA Structure Optimization'>, 'mp-882397': <CalcType.GGA_Static: 'GGA Static'>, 'mp-1326579': <CalcType.GGA_U_Static: 'GGA+U Static'>, 'mp-1576548': <CalcType.GGA_U_Structure_Optimization: 'GGA+U Structure Optimization'>, 'mp-1581421': <CalcType.GGA_U_Structure_Optimization: 'GGA+U Structure Optimization'>, 'mp-1653315': <CalcType.GGA_U_Structure_Optimization: 'GGA+U Structure Optimization'>, 'mp-1651553': <CalcType.GGA_U_Static: 'GGA+U Static'>, 'mp-1653329': <CalcType.GGA_U_Static: 'GGA+U Static'>, 'mp-1652449': <CalcType.GGA_U_Structure_Optimization: 'GGA+U Structure Optimization'>, 'mp-1654075': <CalcType.GGA_U_Static: 'GGA+U Static'>, 'mp-1652490': <CalcType.GGA_U_Static: 'GGA+U Static'>, 'mp-1653385': <CalcType.GGA_U_Static: 'GGA+U Static'>, 'mp-1654271': <CalcType.GGA_U_Structure_Optimization: 'GGA+U Structure Optimization'>, 'mp-1652845': <CalcType.GGA_U_Structure_Optimization: 'GGA+U Structure Optimization'>, 'mp-1651609': <CalcType.GGA_U_Structure_Optimization: 'GGA+U Structure Optimization'>, 'mp-1654299': <CalcType.GGA_U_Structure_Optimization: 'GGA+U Structure Optimization'>, 'mp-1661118': <CalcType.GGA_U_Structure_Optimization: 'GGA+U Structure Optimization'>, 'mp-1666541': <CalcType.GGA_U_Static: 'GGA+U Static'>, 'mp-1667290': <CalcType.GGA_U_Structure_Optimization: 'GGA+U Structure Optimization'>, 'mp-1666883': <CalcType.GGA_U_Static: 'GGA+U Static'>, 'mp-1667050': <CalcType.GGA_U_Structure_Optimization: 'GGA+U Structure Optimization'>, 'mp-1666393': <CalcType.GGA_U_Static: 'GGA+U Static'>, 'mp-1666898': <CalcType.GGA_U_Static: 'GGA+U Static'>, 'mp-1667740': <CalcType.GGA_U_Static: 'GGA+U Static'>, 'mp-1666334': <CalcType.GGA_U_Structure_Optimization: 'GGA+U Structure Optimization'>, 'mp-1666925': <CalcType.GGA_U_Static: 'GGA+U Static'>, 'mp-1666432': <CalcType.GGA_U_Structure_Optimization: 'GGA+U Structure Optimization'>, 'mp-1667010': <CalcType.GGA_U_Structure_Optimization: 'GGA+U Structure Optimization'>, 'mp-1667604': <CalcType.GGA_U_Static: 'GGA+U Static'>, 'mp-1666443': <CalcType.GGA_U_Structure_Optimization: 'GGA+U Structure Optimization'>, 'mp-801599': <CalcType.GGA_U_NSCF_Line: 'GGA+U NSCF Line'>, 'mp-1979226': <CalcType.GGA_U_Static: 'GGA+U Static'>, 'mp-1978987': <CalcType.GGA_U_Static: 'GGA+U Static'>, 'mp-1982672': <CalcType.GGA_U_Static: 'GGA+U Static'>, 'mp-1981410': <CalcType.GGA_U_Static: 'GGA+U Static'>, 'mp-1985760': <CalcType.GGA_U_Static: 'GGA+U Static'>, 'mp-1984110': <CalcType.GGA_U_Static: 'GGA+U Static'>, 'mp-1981799': <CalcType.GGA_U_Static: 'GGA+U Static'>, 'mp-1982162': <CalcType.GGA_U_Static: 'GGA+U Static'>, 'mp-1985232': <CalcType.GGA_U_Static: 'GGA+U Static'>, 'mp-1982333': <CalcType.GGA_U_Static: 'GGA+U Static'>, 'mp-1986309': <CalcType.GGA_U_Static: 'GGA+U Static'>, 'mp-1987517': <CalcType.GGA_U_Static: 'GGA+U Static'>}"
mp-761146,K2 Li4 Mn2 P2 C2 O14,3.2428,"{'mp-764310': <CalcType.GGA_U_Structure_Optimization: 'GGA+U Structure Optimization'>, 'mp-799403': <CalcType.GGA_U_Static: 'GGA+U Static'>, 'mp-800649': <CalcType.GGA_U_NSCF_Line: 'GGA+U NSCF Line'>, 'mp-761146': <CalcType.GGA_Structure_Optimization: 'GGA Structure Optimization'>, 'mp-829692': <CalcType.GGA_NSCF_Line: 'GGA NSCF Line'>, 'mp-1329101': <CalcType.GGA_U_Static: 'GGA+U Static'>, 'mp-1576131': <CalcType.GGA_U_Structure_Optimization: 'GGA+U Structure Optimization'>, 'mp-1652527': <CalcType.GGA_U_Static: 'GGA+U Static'>, 'mp-1807220': <CalcType.GGA_U_Static: 'GGA+U Static'>, 'mp-830173': <CalcType.GGA_NSCF_Line: 'GGA NSCF Line'>, 'mp-804961': <CalcType.GGA_U_NSCF_Line: 'GGA+U NSCF Line'>}"
mp-760044,Na2 Li2 Mn2 P2 C2 O14,0.875699999999999,"{'mp-800180': <CalcType.GGA_U_Static: 'GGA+U Static'>, 'mp-804791': <CalcType.GGA_U_NSCF_Line: 'GGA+U NSCF Line'>, 'mp-763833': <CalcType.GGA_U_Structure_Optimization: 'GGA+U Structure Optimization'>, 'mp-760044': <CalcType.GGA_Structure_Optimization: 'GGA Structure Optimization'>, 'mp-827462': <CalcType.GGA_NSCF_Line: 'GGA NSCF Line'>, 'mp-826511': <CalcType.GGA_Static: 'GGA Static'>, 'mp-1366594': <CalcType.GGA_U_Static: 'GGA+U Static'>, 'mp-1574007': <CalcType.GGA_U_Structure_Optimization: 'GGA+U Structure Optimization'>, 'mp-1575408': <CalcType.GGA_U_Structure_Optimization: 'GGA+U Structure Optimization'>, 'mp-1641437': <CalcType.GGA_U_Static: 'GGA+U Static'>, 'mp-1641919': <CalcType.GGA_U_Static: 'GGA+U Static'>, 'mp-1645546': <CalcType.GGA_U_Static: 'GGA+U Static'>, 'mp-1645731': <CalcType.GGA_U_Structure_Optimization: 'GGA+U Structure Optimization'>, 'mp-829437': <CalcType.GGA_NSCF_Line: 'GGA NSCF Line'>, 'mp-806317': <CalcType.GGA_U_NSCF_Line: 'GGA+U NSCF Line'>, 'mp-1979647': <CalcType.GGA_U_Static: 'GGA+U Static'>, 'mp-1979149': <CalcType.GGA_U_Static: 'GGA+U Static'>, 'mp-1986872': <CalcType.GGA_U_Static: 'GGA+U Static'>}"
mp-760210,Na4 Li8 Ni4 P4 C4 O28,4.0105,"{'mp-800067': <CalcType.GGA_U_NSCF_Line: 'GGA+U NSCF Line'>, 'mp-764261': <CalcType.GGA_U_Structure_Optimization: 'GGA+U Structure Optimization'>, 'mp-799285': <CalcType.GGA_U_Static: 'GGA+U Static'>, 'mp-760210': <CalcType.GGA_Structure_Optimization: 'GGA Structure Optimization'>, 'mp-827593': <CalcType.GGA_Static: 'GGA Static'>, 'mp-829652': <CalcType.GGA_NSCF_Line: 'GGA NSCF Line'>, 'mp-1371167': <CalcType.GGA_U_Static: 'GGA+U Static'>, 'mp-1580004': <CalcType.GGA_U_Structure_Optimization: 'GGA+U Structure Optimization'>, 'mp-1578623': <CalcType.GGA_U_Structure_Optimization: 'GGA+U Structure Optimization'>, 'mp-1579112': <CalcType.GGA_U_Structure_Optimization: 'GGA+U Structure Optimization'>, 'mp-1579572': <CalcType.GGA_U_Structure_Optimization: 'GGA+U Structure Optimization'>, 'mp-1654207': <CalcType.GGA_U_Static: 'GGA+U Static'>, 'mp-1652271': <CalcType.GGA_U_Static: 'GGA+U Static'>, 'mp-1651387': <CalcType.GGA_U_Structure_Optimization: 'GGA+U Structure Optimization'>, 'mp-1651257': <CalcType.GGA_U_Static: 'GGA+U Static'>, 'mp-1653910': <CalcType.GGA_U_Structure_Optimization: 'GGA+U Structure Optimization'>, 'mp-1652493': <CalcType.GGA_U_Static: 'GGA+U Static'>, 'mp-1653937': <CalcType.GGA_U_Static: 'GGA+U Static'>, 'mp-1652864': <CalcType.GGA_U_Static: 'GGA+U Static'>, 'mp-1654297': <CalcType.GGA_U_Structure_Optimization: 'GGA+U Structure Optimization'>, 'mp-1667555': <CalcType.GGA_U_Static: 'GGA+U Static'>, 'mp-1667487': <CalcType.GGA_U_Static: 'GGA+U Static'>, 'mp-1666739': <CalcType.GGA_U_Structure_Optimization: 'GGA+U Structure Optimization'>, 'mp-1667824': <CalcType.GGA_U_Static: 'GGA+U Static'>, 'mp-1667338': <CalcType.GGA_U_Structure_Optimization: 'GGA+U Structure Optimization'>, 'mp-1666926': <CalcType.GGA_U_Static: 'GGA+U Static'>, 'mp-1666769': <CalcType.GGA_U_Structure_Optimization: 'GGA+U Structure Optimization'>, 'mp-1883778': <CalcType.GGA_U_Static: 'GGA+U Static'>, 'mp-830161': <CalcType.GGA_NSCF_Line: 'GGA NSCF Line'>, 'mp-801018': <CalcType.GGA_U_NSCF_Line: 'GGA+U NSCF Line'>, 'mp-2912514': <CalcType.r2SCAN_Structure_Optimization: 'r2SCAN Structure Optimization'>}"
mp-761124,K2 Li2 Mn2 P2 C2 O14,1.0371,"{'mp-764256': <CalcType.GGA_U_Structure_Optimization: 'GGA+U Structure Optimization'>, 'mp-800064': <CalcType.GGA_U_NSCF_Line: 'GGA+U NSCF Line'>, 'mp-799274': <CalcType.GGA_U_Static: 'GGA+U Static'>, 'mp-1117585': <CalcType.GGA_U_DFPT_Dielectric: 'GGA+U DFPT Dielectric'>, 'mp-761124': <CalcType.GGA_Structure_Optimization: 'GGA Structure Optimization'>, 'mp-827596': <CalcType.GGA_Static: 'GGA Static'>, 'mp-829643': <CalcType.GGA_NSCF_Line: 'GGA NSCF Line'>, 'mp-1375679': <CalcType.GGA_U_Static: 'GGA+U Static'>, 'mp-1578859': <CalcType.GGA_U_Structure_Optimization: 'GGA+U Structure Optimization'>, 'mp-1579104': <CalcType.GGA_U_Static: 'GGA+U Static'>, 'mp-1579109': <CalcType.GGA_U_Structure_Optimization: 'GGA+U Structure Optimization'>, 'mp-1580028': <CalcType.GGA_U_Structure_Optimization: 'GGA+U Structure Optimization'>, 'mp-1576574': <CalcType.GGA_U_Static: 'GGA+U Static'>, 'mp-1646450': <CalcType.GGA_U_Structure_Optimization: 'GGA+U Structure Optimization'>, 'mp-1639413': <CalcType.GGA_U_Static: 'GGA+U Static'>, 'mp-1643068': <CalcType.GGA_U_Static: 'GGA+U Static'>, 'mp-1666994': <CalcType.GGA_U_Structure_Optimization: 'GGA+U Structure Optimization'>, 'mp-801605': <CalcType.GGA_U_NSCF_Line: 'GGA+U NSCF Line'>, 'mp-830162': <CalcType.GGA_NSCF_Line: 'GGA NSCF Line'>, 'mp-1982703': <CalcType.GGA_U_Static: 'GGA+U Static'>, 'mp-1981854': <CalcType.GGA_U_Static: 'GGA+U Static'>, 'mp-1985261': <CalcType.GGA_U_Static: 'GGA+U Static'>}"
mp-770772,Na2 Li4 Fe2 P2 C2 O14,4.1713000000000005,"{'mp-771405': <CalcType.GGA_U_Structure_Optimization: 'GGA+U Structure Optimization'>, 'mp-803659': <CalcType.GGA_U_Static: 'GGA+U Static'>, 'mp-811952': <CalcType.GGA_U_NSCF_Line: 'GGA+U NSCF Line'>, 'mp-770772': <CalcType.GGA_Structure_Optimization: 'GGA Structure Optimization'>, 'mp-885797': <CalcType.GGA_Static: 'GGA Static'>, 'mp-1369894': <CalcType.GGA_U_Static: 'GGA+U Static'>, 'mp-1580707': <CalcType.GGA_U_Structure_Optimization: 'GGA+U Structure Optimization'>, 'mp-1650750': <CalcType.GGA_U_Static: 'GGA+U Static'>, 'mp-1667585': <CalcType.GGA_U_Structure_Optimization: 'GGA+U Structure Optimization'>, 'mp-1667591': <CalcType.GGA_U_Static: 'GGA+U Static'>, 'mp-1666855': <CalcType.GGA_U_Static: 'GGA+U Static'>, 'mp-1666690': <CalcType.GGA_U_Structure_Optimization: 'GGA+U Structure Optimization'>, 'mp-812570': <CalcType.GGA_U_NSCF_Line: 'GGA+U NSCF Line'>, 'mp-1979118': <CalcType.GGA_U_Static: 'GGA+U Static'>, 'mp-1981409': <CalcType.GGA_U_Static: 'GGA+U Static'>, 'mp-1983252': <CalcType.GGA_U_Static: 'GGA+U Static'>}"
mp-560093,Sr10 Sm6 Al6 Si30 N54 O7,2.9163,"{'mp-560093': <CalcType.GGA_Structure_Optimization: 'GGA Structure Optimization'>, 'mp-1134288': <CalcType.GGA_Structure_Optimization: 'GGA Structure Optimization'>, 'mp-1336379': <CalcType.GGA_Static: 'GGA Static'>}"
mp-1227606,Ba1 Sr1 Y1 Tl1 Cu2 O7,0.0,"{'mp-1227606': <CalcType.GGA_Structure_Optimization: 'GGA Structure Optimization'>, 'mp-1384883': <CalcType.GGA_Static: 'GGA Static'>, 'mp-1741522': <CalcType.GGA_NSCF_Uniform: 'GGA NSCF Uniform'>, 'mp-1827723': <CalcType.GGA_Static: 'GGA Static'>}"
mp-1227445,Ba1 Sr1 Nd1 Tl1 Cu2 O7,0.0,"{'mp-1227445': <CalcType.GGA_Structure_Optimization: 'GGA Structure Optimization'>, 'mp-1400428': <CalcType.GGA_Static: 'GGA Static'>, 'mp-1738397': <CalcType.GGA_NSCF_Uniform: 'GGA NSCF Uniform'>, 'mp-1832759': <CalcType.GGA_Static: 'GGA Static'>}"
mp-1235047,Ba2 Li1 Sm1 Co1 Cu2 O7,0.0,"{'mp-1235047': <CalcType.GGA_U_Static: 'GGA+U Static'>, 'mp-1235574': <CalcType.GGA_U_Structure_Optimization: 'GGA+U Structure Optimization'>}"
mp-774723,Cu4 H48 C12 S4 N24 O28,0.6535000000000001,"{'mp-774723': <CalcType.GGA_Structure_Optimization: 'GGA Structure Optimization'>, 'mp-853955': <CalcType.GGA_Static: 'GGA Static'>, 'mp-996068': <CalcType.GGA_NSCF_Line: 'GGA NSCF Line'>, 'mp-1366265': <CalcType.GGA_Static: 'GGA Static'>, 'mp-1850956': <CalcType.GGA_Static: 'GGA Static'>, 'mp-996686': <CalcType.GGA_NSCF_Line: 'GGA NSCF Line'>, 'mp-1628534': <CalcType.GGA_NSCF_Line: 'GGA NSCF Line'>}"
mp-1196487,Rb8 U8 H16 Se8 O56 F8,2.2095000000000002,"{'mp-1196487': <CalcType.GGA_Structure_Optimization: 'GGA Structure Optimization'>, 'mp-1334236': <CalcType.GGA_Static: 'GGA Static'>}"
mp-1204398,Co4 Mo4 H96 N24 Cl4 O28,3.4214,"{'mp-1204398': <CalcType.GGA_U_Structure_Optimization: 'GGA+U Structure Optimization'>, 'mp-1334831': <CalcType.GGA_U_Static: 'GGA+U Static'>}"
mp-1203219,Co4 H48 C4 N16 Cl4 O28,3.6246,"{'mp-1203219': <CalcType.GGA_U_Structure_Optimization: 'GGA+U Structure Optimization'>, 'mp-1847475': <CalcType.GGA_U_Static: 'GGA+U Static'>, 'mp-1984943': <CalcType.GGA_U_Static: 'GGA+U Static'>}"
mp-772544,Na8 Li4 Fe4 P4 C4 O28,3.8041,"{'mp-804371': <CalcType.GGA_U_Static: 'GGA+U Static'>, 'mp-773678': <CalcType.GGA_U_Structure_Optimization: 'GGA+U Structure Optimization'>, 'mp-813250': <CalcType.GGA_U_NSCF_Line: 'GGA+U NSCF Line'>, 'mp-772544': <CalcType.GGA_Structure_Optimization: 'GGA Structure Optimization'>, 'mp-1349497': <CalcType.GGA_U_Static: 'GGA+U Static'>, 'mp-1875442': <CalcType.GGA_U_Static: 'GGA+U Static'>, 'mp-814016': <CalcType.GGA_U_NSCF_Line: 'GGA+U NSCF Line'>}"
mp-772555,Na8 Li4 Mn4 P4 C4 O28,3.611799999999999,"{'mp-804372': <CalcType.GGA_U_Static: 'GGA+U Static'>, 'mp-813256': <CalcType.GGA_U_NSCF_Line: 'GGA+U NSCF Line'>, 'mp-773710': <CalcType.GGA_U_Structure_Optimization: 'GGA+U Structure Optimization'>, 'mp-772555': <CalcType.GGA_Structure_Optimization: 'GGA Structure Optimization'>, 'mp-832697': <CalcType.GGA_NSCF_Line: 'GGA NSCF Line'>, 'mp-1349239': <CalcType.GGA_U_Static: 'GGA+U Static'>, 'mp-1771560': <CalcType.GGA_U_Static: 'GGA+U Static'>, 'mp-1890078': <CalcType.GGA_U_Static: 'GGA+U Static'>, 'mp-814023': <CalcType.GGA_U_NSCF_Line: 'GGA+U NSCF Line'>, 'mp-833505': <CalcType.GGA_NSCF_Line: 'GGA NSCF Line'>}"
mp-1227647,Ba1 Sr1 Y1 Cu3 Pb1 O7,0.0,"{'mp-1227647': <CalcType.GGA_Structure_Optimization: 'GGA Structure Optimization'>, 'mp-1834020': <CalcType.GGA_Static: 'GGA Static'>}"
mp-740871,Ba4 Zn4 C16 S16 N16 O28,0.011000000000000001,"{'mp-740871': <CalcType.GGA_Static: 'GGA Static'>, 'mp-746014': <CalcType.GGA_NSCF_Line: 'GGA NSCF Line'>, 'mp-750558': <CalcType.GGA_NSCF_Line: 'GGA NSCF Line'>}"
mp-1204234,Mn2 P4 H18 C4 N2 O14,4.3048,"{'mp-1204234': <CalcType.GGA_U_Structure_Optimization: 'GGA+U Structure Optimization'>, 'mp-1843778': <CalcType.GGA_U_Static: 'GGA+U Static'>, 'mp-1981669': <CalcType.GGA_U_Static: 'GGA+U Static'>}"
mp-738635,Na8 Zn8 P16 H8 Cl8 O56,0.0,"{'mp-738635': <CalcType.GGA_Structure_Optimization: 'GGA Structure Optimization'>, 'mp-746043': <CalcType.GGA_Static: 'GGA Static'>, 'mp-750563': <CalcType.GGA_NSCF_Line: 'GGA NSCF Line'>, 'mp-1334327': <CalcType.GGA_Static: 'GGA Static'>}"
mp-2218929,La1 Mg1 Ta2 Cu1 Cl1 O7,0.0,"{'mp-2218929': <CalcType.GGA_Structure_Optimization: 'GGA Structure Optimization'>, 'mp-2219253': <CalcType.GGA_Static: 'GGA Static'>}"
mp-2227680,La1 Mg1 Nb2 Cu1 Cl1 O7,0.0,"{'mp-2227680': <CalcType.GGA_Structure_Optimization: 'GGA Structure Optimization'>, 'mp-2227690': <CalcType.GGA_Static: 'GGA Static'>}"
mp-2228464,Sr2 Y1 Mg1 Tl1 Cu2 O7,0.0,{'mp-2228464': <CalcType.GGA_Structure_Optimization: 'GGA Structure Optimization'>}
mp-1177545,Li6 V2 Fe2 P4 O16 F4,2.4464,"{'mp-1177545': <CalcType.GGA_U_Structure_Optimization: 'GGA+U Structure Optimization'>, 'mp-1410548': <CalcType.GGA_U_Static: 'GGA+U Static'>, 'mp-1290775': <CalcType.GGA_U_Static: 'GGA+U Static'>, 'mp-1316097': <CalcType.GGA_U_Structure_Optimization: 'GGA+U Structure Optimization'>, 'mp-1312371': <CalcType.GGA_U_Static: 'GGA+U Static'>, 'mp-1313126': <CalcType.GGA_U_Static: 'GGA+U Static'>, 'mp-1301988': <CalcType.GGA_U_Static: 'GGA+U Static'>, 'mp-1318455': <CalcType.GGA_U_Structure_Optimization: 'GGA+U Structure Optimization'>, 'mp-1311027': <CalcType.GGA_U_Static: 'GGA+U Static'>, 'mp-1311792': <CalcType.GGA_U_Structure_Optimization: 'GGA+U Structure Optimization'>, 'mp-1317815': <CalcType.GGA_U_Static: 'GGA+U Static'>, 'mp-1308898': <CalcType.GGA_U_Structure_Optimization: 'GGA+U Structure Optimization'>, 'mp-1301469': <CalcType.GGA_U_Structure_Optimization: 'GGA+U Structure Optimization'>, 'mp-1317156': <CalcType.GGA_U_Structure_Optimization: 'GGA+U Structure Optimization'>, 'mp-1302257': <CalcType.GGA_U_Structure_Optimization: 'GGA+U Structure Optimization'>, 'mp-1317950': <CalcType.GGA_U_Static: 'GGA+U Static'>, 'mp-1307511': <CalcType.GGA_U_Structure_Optimization: 'GGA+U Structure Optimization'>, 'mp-1318737': <CalcType.GGA_U_Structure_Optimization: 'GGA+U Structure Optimization'>, 'mp-1306884': <CalcType.GGA_U_Structure_Optimization: 'GGA+U Structure Optimization'>, 'mp-1312856': <CalcType.GGA_U_Static: 'GGA+U Static'>, 'mp-1303922': <CalcType.GGA_U_Structure_Optimization: 'GGA+U Structure Optimization'>, 'mp-1316624': <CalcType.GGA_U_Static: 'GGA+U Static'>, 'mp-1309913': <CalcType.GGA_U_Static: 'GGA+U Static'>, 'mp-1306323': <CalcType.GGA_U_Static: 'GGA+U Static'>}"
mp-1234112,K4 Mg1 Zn4 H16 Br12 O8,2.1337,{'mp-1234112': <CalcType.GGA_Structure_Optimization: 'GGA Structure Optimization'>}
mp-1234053,K4 Mg1 Zn4 H16 Br12 O8,0.825199999999999,{'mp-1234053': <CalcType.GGA_Structure_Optimization: 'GGA Structure Optimization'>}
mp-1234266,K4 Mg1 Zn4 H16 Br12 O8,1.2519,{'mp-1234266': <CalcType.GGA_Structure_Optimization: 'GGA Structure Optimization'>}
mp-1234710,K4 Mg1 Zn4 H16 Br12 O8,2.1464,{'mp-1234710': <CalcType.GGA_Structure_Optimization: 'GGA Structure Optimization'>}
mp-1263670,Na4 Ca8 Ti4 Si8 O32 F4,3.676199999999999,"{'mp-1248063': <CalcType.GGA_NMR_Electric_Field_Gradient: 'GGA NMR Electric Field Gradient'>, 'mp-1251456': <CalcType.GGA_NMR_Nuclear_Shielding: 'GGA NMR Nuclear Shielding'>, 'mp-1263670': <CalcType.GGA_Structure_Optimization: 'GGA Structure Optimization'>, 'mp-1895353': <CalcType.GGA_Static: 'GGA Static'>}"
mp-1391284,Li1 Mn1 V1 P2 O8 F2,0.0,{'mp-1391284': <CalcType.GGA_U_Static: 'GGA+U Static'>}
mp-1386918,Li1 V1 Cr1 P2 O8 F2,0.0,{'mp-1386918': <CalcType.GGA_U_Static: 'GGA+U Static'>}