Material ID,Composition,Band Gap,Calc Types
mp-2714939,Na12 Nb6 Si15 Sn6 S3 O72,2.621699999999999,{'mp-2714939': <CalcType.GGA_Structure_Optimization: 'GGA Structure Optimization'>}
mp-2714940,Na21 Ca3 Hf9 Si9 P9 O72,4.0112,{'mp-2714940': <CalcType.GGA_Structure_Optimization: 'GGA Structure Optimization'>}
mp-2714958,Na15 Hf6 Mg6 P15 S3 O72,4.3229,{'mp-2714958': <CalcType.GGA_Structure_Optimization: 'GGA Structure Optimization'>}
mp-2714990,Na15 La6 Sc6 P15 S3 O72,4.1017,{'mp-2714990': <CalcType.GGA_Structure_Optimization: 'GGA Structure Optimization'>}
mp-2714996,Na21 Nb6 Zn6 Si9 P9 O72,1.7850000000000001,{'mp-2714996': <CalcType.GGA_Structure_Optimization: 'GGA Structure Optimization'>}
mp-2714934,Na24 Zn6 In6 Si9 S9 O72,0.032799999999999004,{'mp-2714934': <CalcType.GGA_Structure_Optimization: 'GGA Structure Optimization'>}
mp-2714968,Na21 Sc6 Si9 Sn6 P9 O72,3.3054,{'mp-2714968': <CalcType.GGA_Structure_Optimization: 'GGA Structure Optimization'>}
mp-2714989,Na12 Zr6 Ta6 Si15 S3 O72,3.4443,{'mp-2714989': <CalcType.GGA_Structure_Optimization: 'GGA Structure Optimization'>}
mp-2714948,Na24 Hf3 Mg9 Si9 S9 O72,3.3244,{'mp-2714948': <CalcType.GGA_Structure_Optimization: 'GGA Structure Optimization'>}
mp-2714962,Na15 Zr6 Zn6 P15 S3 O72,3.6102,{'mp-2714962': <CalcType.GGA_Structure_Optimization: 'GGA Structure Optimization'>}
mp-2714967,Na15 Y6 In6 P15 S3 O72,3.4166,{'mp-2714967': <CalcType.GGA_Structure_Optimization: 'GGA Structure Optimization'>}
mp-2714985,Na24 Mg9 Zr3 Si9 S9 O72,2.971,{'mp-2714985': <CalcType.GGA_Structure_Optimization: 'GGA Structure Optimization'>}
mp-2714994,Na21 Zr6 Al6 Si9 P9 O72,4.0165,{'mp-2714994': <CalcType.GGA_Structure_Optimization: 'GGA Structure Optimization'>}
mp-2714926,Na12 Nb9 Ga3 Si15 S3 O72,2.2537000000000003,{'mp-2714926': <CalcType.GGA_Structure_Optimization: 'GGA Structure Optimization'>}
mp-2714933,Na12 La3 Ta9 Si12 P6 O72,3.051,{'mp-2714933': <CalcType.GGA_Structure_Optimization: 'GGA Structure Optimization'>}
mp-2714955,Na24 Zn9 Si9 Ge3 S9 O72,1.8147000000000002,{'mp-2714955': <CalcType.GGA_Structure_Optimization: 'GGA Structure Optimization'>}
mp-2714976,Na12 Nb9 Ga3 Si12 P6 O72,2.512299999999999,{'mp-2714976': <CalcType.GGA_Structure_Optimization: 'GGA Structure Optimization'>}
mp-2714992,Na15 La6 In6 P15 S3 O72,3.0204,{'mp-2714992': <CalcType.GGA_Structure_Optimization: 'GGA Structure Optimization'>}
mp-2714944,Na24 Ca9 Zr3 Si9 S9 O72,3.0035,{'mp-2714944': <CalcType.GGA_Structure_Optimization: 'GGA Structure Optimization'>}
mp-2714956,Na15 Ca6 Ti6 P15 S3 O72,1.8587,{'mp-2714956': <CalcType.GGA_Structure_Optimization: 'GGA Structure Optimization'>}
mp-2714961,Na15 Sc6 Ga6 P15 S3 O72,3.5824,{'mp-2714961': <CalcType.GGA_Structure_Optimization: 'GGA Structure Optimization'>}
mp-2714959,Na24 Ca6 Ga6 Si9 S9 O72,1.9727000000000001,{'mp-2714959': <CalcType.GGA_Structure_Optimization: 'GGA Structure Optimization'>}
mp-2714972,Na12 La3 Nb9 Si12 P6 O72,2.260099999999999,{'mp-2714972': <CalcType.GGA_Structure_Optimization: 'GGA Structure Optimization'>}
mp-2714974,Na15 La6 Ga6 P15 S3 O72,2.7981,{'mp-2714974': <CalcType.GGA_Structure_Optimization: 'GGA Structure Optimization'>}
mp-2714988,Na21 Zn3 Si9 Ge9 P9 O72,2.1439999999999992,{'mp-2714988': <CalcType.GGA_Structure_Optimization: 'GGA Structure Optimization'>}
mp-2715001,Na12 Nb6 Si15 Ge6 S3 O72,2.513,{'mp-2715001': <CalcType.GGA_Structure_Optimization: 'GGA Structure Optimization'>}
mp-2715005,Na12 La3 Ta9 Si15 S3 O72,2.6946000000000003,{'mp-2715005': <CalcType.GGA_Structure_Optimization: 'GGA Structure Optimization'>}
mp-2715061,Na24 Ca9 Si9 Ge3 S9 O72,1.486899999999999,{'mp-2715061': <CalcType.GGA_Structure_Optimization: 'GGA Structure Optimization'>}
mp-2715104,Na24 Mg6 Ga6 Si9 S9 O72,2.088799999999999,{'mp-2715104': <CalcType.GGA_Structure_Optimization: 'GGA Structure Optimization'>}
mp-2715117,Na21 Ta6 Zn6 Si9 P9 O72,2.6365,{'mp-2715117': <CalcType.GGA_Structure_Optimization: 'GGA Structure Optimization'>}
mp-2715006,Na12 Sc3 Ta9 Si12 P6 O72,3.197399999999999,{'mp-2715006': <CalcType.GGA_Structure_Optimization: 'GGA Structure Optimization'>}
mp-2715008,Na15 Zn6 Ge6 P15 S3 O72,1.6577000000000002,{'mp-2715008': <CalcType.GGA_Structure_Optimization: 'GGA Structure Optimization'>}
mp-2715020,Na15 Y6 Sc6 P15 S3 O72,4.2575,{'mp-2715020': <CalcType.GGA_Structure_Optimization: 'GGA Structure Optimization'>}
mp-2715039,Na12 Sc3 Ta9 Si15 S3 O72,3.005299999999999,{'mp-2715039': <CalcType.GGA_Structure_Optimization: 'GGA Structure Optimization'>}
mp-2715042,Na12 Ta9 Ga3 Si15 S3 O72,3.0084,{'mp-2715042': <CalcType.GGA_Structure_Optimization: 'GGA Structure Optimization'>}
mp-2715071,Na12 Ta9 Ga3 Si12 P6 O72,3.219299999999999,{'mp-2715071': <CalcType.GGA_Structure_Optimization: 'GGA Structure Optimization'>}
mp-2715072,Na21 La9 Nb3 Si9 P9 O72,2.4829,{'mp-2715072': <CalcType.GGA_Structure_Optimization: 'GGA Structure Optimization'>}
mp-2715077,Na12 Zr6 Nb6 Si15 S3 O72,2.5691,{'mp-2715077': <CalcType.GGA_Structure_Optimization: 'GGA Structure Optimization'>}
mp-2715121,Na21 Zr6 In6 Si9 P9 O72,3.6683,{'mp-2715121': <CalcType.GGA_Structure_Optimization: 'GGA Structure Optimization'>}
mp-2715028,Na21 Zr6 Ga6 Si9 P9 O72,3.9461,{'mp-2715028': <CalcType.GGA_Structure_Optimization: 'GGA Structure Optimization'>}
mp-2715035,Na24 Ca6 Sc6 Si9 S9 O72,2.395,{'mp-2715035': <CalcType.GGA_Structure_Optimization: 'GGA Structure Optimization'>}
mp-2715064,Na12 Y3 Ta9 Si12 P6 O72,3.16,{'mp-2715064': <CalcType.GGA_Structure_Optimization: 'GGA Structure Optimization'>}
mp-2715080,Na15 Mg6 Sn6 P15 S3 O72,2.2393,{'mp-2715080': <CalcType.GGA_Structure_Optimization: 'GGA Structure Optimization'>}
mp-2715097,Na12 Nb9 Al3 Si12 P6 O72,2.4063,{'mp-2715097': <CalcType.GGA_Structure_Optimization: 'GGA Structure Optimization'>}
mp-2715095,Na24 Al6 Zn6 Si9 S9 O72,2.9637000000000002,{'mp-2715095': <CalcType.GGA_Structure_Optimization: 'GGA Structure Optimization'>}
mp-2715103,Na12 Ta9 In3 Si15 S3 O72,0.5346000000000001,{'mp-2715103': <CalcType.GGA_Structure_Optimization: 'GGA Structure Optimization'>}
mp-2715118,Na15 Ca6 Ge6 P15 S3 O72,1.0194,{'mp-2715118': <CalcType.GGA_Structure_Optimization: 'GGA Structure Optimization'>}
mp-2715125,Na15 Y6 Al6 P15 S3 O72,4.4855,{'mp-2715125': <CalcType.GGA_Structure_Optimization: 'GGA Structure Optimization'>}
mp-2715015,Na24 Sc6 Zn6 Si9 S9 O72,2.565299999999999,{'mp-2715015': <CalcType.GGA_Structure_Optimization: 'GGA Structure Optimization'>}
mp-2715044,Na21 Zn3 Si9 Sn9 P9 O72,2.3817999999999993,{'mp-2715044': <CalcType.GGA_Structure_Optimization: 'GGA Structure Optimization'>}
mp-2715073,Na15 La6 Al6 P15 S3 O72,4.239800000000001,{'mp-2715073': <CalcType.GGA_Structure_Optimization: 'GGA Structure Optimization'>}
mp-2715135,Na24 Ca6 La6 Si9 S9 O72,3.002399999999999,{'mp-2715135': <CalcType.GGA_Structure_Optimization: 'GGA Structure Optimization'>}
mp-2715007,Na24 Ca6 Al6 Si9 S9 O72,2.9616000000000002,{'mp-2715007': <CalcType.GGA_Structure_Optimization: 'GGA Structure Optimization'>}
mp-2715050,Na24 Zn9 Si9 Sn3 S9 O72,1.8354,{'mp-2715050': <CalcType.GGA_Structure_Optimization: 'GGA Structure Optimization'>}
mp-2715119,Na12 Hf6 Nb6 Si15 S3 O72,2.4899,{'mp-2715119': <CalcType.GGA_Structure_Optimization: 'GGA Structure Optimization'>}
mp-2715126,Na12 La3 Nb9 Si15 S3 O72,1.9459,{'mp-2715126': <CalcType.GGA_Structure_Optimization: 'GGA Structure Optimization'>}
mp-2715053,Na12 Ta6 Si15 Ge6 S3 O72,2.949,{'mp-2715053': <CalcType.GGA_Structure_Optimization: 'GGA Structure Optimization'>}
mp-2715109,Na24 Ti3 Zn9 Si9 S9 O72,1.7888000000000002,{'mp-2715109': <CalcType.GGA_Structure_Optimization: 'GGA Structure Optimization'>}
mp-2715122,Na12 Nb9 Al3 Si15 S3 O72,2.2748,{'mp-2715122': <CalcType.GGA_Structure_Optimization: 'GGA Structure Optimization'>}
mp-2715124,Na15 In6 Ga6 P15 S3 O72,3.3467000000000002,{'mp-2715124': <CalcType.GGA_Structure_Optimization: 'GGA Structure Optimization'>}
mp-2715128,Na21 La6 Zr6 Si9 P9 O72,4.032500000000001,{'mp-2715128': <CalcType.GGA_Structure_Optimization: 'GGA Structure Optimization'>}
mp-2715016,Na24 Mg9 Ti3 Si9 S9 O72,1.4535999999999991,{'mp-2715016': <CalcType.GGA_Structure_Optimization: 'GGA Structure Optimization'>}
mp-2715030,Na21 Ca3 Si9 Ge9 P9 O72,1.9216000000000002,{'mp-2715030': <CalcType.GGA_Structure_Optimization: 'GGA Structure Optimization'>}
mp-2715032,Na15 Mg6 Ge6 P15 S3 O72,1.676699999999999,{'mp-2715032': <CalcType.GGA_Structure_Optimization: 'GGA Structure Optimization'>}
mp-2715038,Na24 Mg6 Sc6 Si9 S9 O72,2.616599999999999,{'mp-2715038': <CalcType.GGA_Structure_Optimization: 'GGA Structure Optimization'>}
mp-2715040,Na12 Sc3 Nb9 Si12 P6 O72,2.3838,{'mp-2715040': <CalcType.GGA_Structure_Optimization: 'GGA Structure Optimization'>}
mp-2715048,Na15 Al6 Ga6 P15 S3 O72,4.2125,{'mp-2715048': <CalcType.GGA_Structure_Optimization: 'GGA Structure Optimization'>}
mp-2715021,Na15 Ca6 Hf6 P15 S3 O72,4.149599999999999,{'mp-2715021': <CalcType.GGA_Structure_Optimization: 'GGA Structure Optimization'>}
mp-2715029,Na15 Mg6 Zr6 P15 S3 O72,3.542399999999999,{'mp-2715029': <CalcType.GGA_Structure_Optimization: 'GGA Structure Optimization'>}
mp-2715033,Na24 Hf3 Zn9 Si9 S9 O72,3.168199999999999,{'mp-2715033': <CalcType.GGA_Structure_Optimization: 'GGA Structure Optimization'>}
mp-2715052,Na12 Ta9 In3 Si12 P6 O72,3.1483,{'mp-2715052': <CalcType.GGA_Structure_Optimization: 'GGA Structure Optimization'>}
mp-2715057,Na12 Ta9 Al3 Si15 S3 O72,3.0966,{'mp-2715057': <CalcType.GGA_Structure_Optimization: 'GGA Structure Optimization'>}
mp-2715146,Na15 Zn6 Sn6 P15 S3 O72,2.1997,{'mp-2715146': <CalcType.GGA_Structure_Optimization: 'GGA Structure Optimization'>}
mp-2715151,Na24 Mg9 Si9 Ge3 S9 O72,1.359999999999999,{'mp-2715151': <CalcType.GGA_Structure_Optimization: 'GGA Structure Optimization'>}
mp-2715086,Na12 Sc3 Nb9 Si15 S3 O72,2.0781,{'mp-2715086': <CalcType.GGA_Structure_Optimization: 'GGA Structure Optimization'>}
mp-2715093,Na12 Ti6 Nb6 Si15 S3 O72,2.4744,{'mp-2715093': <CalcType.GGA_Structure_Optimization: 'GGA Structure Optimization'>}
mp-2715101,Na24 Ca6 Y6 Si9 S9 O72,2.7989,{'mp-2715101': <CalcType.GGA_Structure_Optimization: 'GGA Structure Optimization'>}
mp-2715115,Na21 Sc9 Nb3 Si9 P9 O72,2.1378,{'mp-2715115': <CalcType.GGA_Structure_Optimization: 'GGA Structure Optimization'>}
mp-2715059,Na15 Hf6 Zn6 P15 S3 O72,4.0267,{'mp-2715059': <CalcType.GGA_Structure_Optimization: 'GGA Structure Optimization'>}
mp-2715083,Na15 Ca6 Sn6 P15 S3 O72,1.551899999999999,{'mp-2715083': <CalcType.GGA_Structure_Optimization: 'GGA Structure Optimization'>}
mp-2715112,Na12 Y3 Ta9 Si15 S3 O72,2.891599999999999,{'mp-2715112': <CalcType.GGA_Structure_Optimization: 'GGA Structure Optimization'>}
mp-2715138,Na15 Ca6 Zr6 P15 S3 O72,3.3931,{'mp-2715138': <CalcType.GGA_Structure_Optimization: 'GGA Structure Optimization'>}
mp-2715139,Na12 Ta6 Si15 Sn6 S3 O72,3.0341,{'mp-2715139': <CalcType.GGA_Structure_Optimization: 'GGA Structure Optimization'>}
mp-2715140,Na12 Ta9 Al3 Si12 P6 O72,3.184999999999999,{'mp-2715140': <CalcType.GGA_Structure_Optimization: 'GGA Structure Optimization'>}
mp-2715134,Na15 Mg6 Ti6 P15 S3 O72,1.969199999999999,{'mp-2715134': <CalcType.GGA_Structure_Optimization: 'GGA Structure Optimization'>}
mp-2715141,Na15 Sc6 In6 P15 S3 O72,0.9415999999999991,{'mp-2715141': <CalcType.GGA_Structure_Optimization: 'GGA Structure Optimization'>}
mp-2715163,Na24 Zn6 Ga6 Si9 S9 O72,2.0592,{'mp-2715163': <CalcType.GGA_Structure_Optimization: 'GGA Structure Optimization'>}
mp-2715157,Na24 Y6 Mg6 Si9 S9 O72,2.9958,{'mp-2715157': <CalcType.GGA_Structure_Optimization: 'GGA Structure Optimization'>}
mp-2715161,Na12 Ta6 Ti6 Si15 S3 O72,2.6292,{'mp-2715161': <CalcType.GGA_Structure_Optimization: 'GGA Structure Optimization'>}
mp-2715162,Na21 Ga6 Si9 Ge6 P9 O72,3.207499999999999,{'mp-2715162': <CalcType.GGA_Structure_Optimization: 'GGA Structure Optimization'>}
mp-2715170,Na21 Ca3 Si9 Sn9 P9 O72,2.1672000000000002,{'mp-2715170': <CalcType.GGA_Structure_Optimization: 'GGA Structure Optimization'>}
mp-2715168,Na24 Ca9 Si9 Sn3 S9 O72,1.5146000000000002,{'mp-2715168': <CalcType.GGA_Structure_Optimization: 'GGA Structure Optimization'>}
mp-2715171,Na21 Hf6 Al6 Si9 P9 O72,4.425499999999999,{'mp-2715171': <CalcType.GGA_Structure_Optimization: 'GGA Structure Optimization'>}
mp-2715178,Na12 Hf6 Ta6 Si15 S3 O72,3.4169,{'mp-2715178': <CalcType.GGA_Structure_Optimization: 'GGA Structure Optimization'>}
mp-2715176,Na12 Nb9 In3 Si15 S3 O72,1.9856,{'mp-2715176': <CalcType.GGA_Structure_Optimization: 'GGA Structure Optimization'>}
mp-2715177,Na12 Y3 Nb9 Si12 P6 O72,2.3904,{'mp-2715177': <CalcType.GGA_Structure_Optimization: 'GGA Structure Optimization'>}
mp-2715183,Na12 Y3 Nb9 Si15 S3 O72,1.9944000000000002,{'mp-2715183': <CalcType.GGA_Structure_Optimization: 'GGA Structure Optimization'>}
mp-2715180,Na21 Y6 Hf6 Si9 P9 O72,4.2706,{'mp-2715180': <CalcType.GGA_Structure_Optimization: 'GGA Structure Optimization'>}
mp-2715189,Na15 Y6 Ga6 P15 S3 O72,3.0336,{'mp-2715189': <CalcType.GGA_Structure_Optimization: 'GGA Structure Optimization'>}
mp-2715190,Na21 La9 Ta3 Si9 P9 O72,3.203999999999999,{'mp-2715190': <CalcType.GGA_Structure_Optimization: 'GGA Structure Optimization'>}
mp-2715186,Na24 La6 Zn6 Si9 S9 O72,2.8977,{'mp-2715186': <CalcType.GGA_Structure_Optimization: 'GGA Structure Optimization'>}
mp-2715185,Na24 Y6 Zn6 Si9 S9 O72,2.7255000000000003,{'mp-2715185': <CalcType.GGA_Structure_Optimization: 'GGA Structure Optimization'>}
mp-2715191,Na15 Sc6 Al6 P15 S3 O72,4.5782,{'mp-2715191': <CalcType.GGA_Structure_Optimization: 'GGA Structure Optimization'>}
mp-2715192,Na24 Ca9 Hf3 Si9 S9 O72,3.1132,{'mp-2715192': <CalcType.GGA_Structure_Optimization: 'GGA Structure Optimization'>}
mp-2715188,Na21 Nb3 Ga9 Si9 P9 O72,2.4001,{'mp-2715188': <CalcType.GGA_Structure_Optimization: 'GGA Structure Optimization'>}
mp-2715201,Na24 Mg6 Al6 Si9 S9 O72,2.921299999999999,{'mp-2715201': <CalcType.GGA_Structure_Optimization: 'GGA Structure Optimization'>}
mp-2715207,Na24 Ca6 In6 Si9 S9 O72,1.778,{'mp-2715207': <CalcType.GGA_Structure_Optimization: 'GGA Structure Optimization'>}
mp-2715211,Na24 Zr3 Zn9 Si9 S9 O72,3.056899999999999,{'mp-2715211': <CalcType.GGA_Structure_Optimization: 'GGA Structure Optimization'>}
mp-2715208,Na21 Ta3 Al9 Si9 P9 O72,3.0503,{'mp-2715208': <CalcType.GGA_Structure_Optimization: 'GGA Structure Optimization'>}
mp-2715234,Na12 Sc6 Ta2 Si4 P8 O48,3.549699999999999,{'mp-2715234': <CalcType.GGA_Structure_Optimization: 'GGA Structure Optimization'>}
mp-2715209,Na24 La6 Mg6 Si9 S9 O72,3.0396,{'mp-2715209': <CalcType.GGA_Structure_Optimization: 'GGA Structure Optimization'>}
mp-2715216,Na24 Mg6 In6 Si9 S9 O72,2.030599999999999,{'mp-2715216': <CalcType.GGA_Structure_Optimization: 'GGA Structure Optimization'>}
mp-2715236,Na12 Sc6 Nb2 Si4 P8 O48,2.6599,{'mp-2715236': <CalcType.GGA_Structure_Optimization: 'GGA Structure Optimization'>}
mp-2715246,Na12 Ca2 Zr6 Si4 P8 O48,4.111599999999999,{'mp-2715246': <CalcType.GGA_Structure_Optimization: 'GGA Structure Optimization'>}
mp-2715239,Na12 Zn2 Si4 Ge6 P8 O48,2.3574,{'mp-2715239': <CalcType.GGA_Structure_Optimization: 'GGA Structure Optimization'>}
mp-2715244,Na18 Ca3 Si6 Ge9 P12 O72,1.8263,{'mp-2715244': <CalcType.GGA_Structure_Optimization: 'GGA Structure Optimization'>}
mp-2715235,Na18 Mg3 Zr9 Si6 P12 O72,3.597399999999999,{'mp-2715235': <CalcType.GGA_Structure_Optimization: 'GGA Structure Optimization'>}
mp-2715269,Na12 Ca2 Si4 Sn6 P8 O48,2.3384,{'mp-2715269': <CalcType.GGA_Structure_Optimization: 'GGA Structure Optimization'>}
mp-2715250,Na12 Ta2 In6 Si4 P8 O48,3.4192,{'mp-2715250': <CalcType.GGA_Structure_Optimization: 'GGA Structure Optimization'>}
mp-2715253,Na18 Ta3 Ga9 Si6 P12 O72,3.3143000000000002,{'mp-2715253': <CalcType.GGA_Structure_Optimization: 'GGA Structure Optimization'>}
mp-2715277,Na18 Zr9 Zn3 Si6 P12 O72,3.7194000000000003,{'mp-2715277': <CalcType.GGA_Structure_Optimization: 'GGA Structure Optimization'>}
mp-2715307,Na18 Ca3 Hf9 Si6 P12 O72,4.2252,{'mp-2715307': <CalcType.GGA_Structure_Optimization: 'GGA Structure Optimization'>}
mp-2715296,Na12 La6 Nb2 Si4 P8 O48,2.7685,{'mp-2715296': <CalcType.GGA_Structure_Optimization: 'GGA Structure Optimization'>}
mp-2715276,Na18 La9 Ta3 Si6 P12 O72,3.233399999999999,{'mp-2715276': <CalcType.GGA_Structure_Optimization: 'GGA Structure Optimization'>}
mp-2715306,Na18 Mg3 Si6 Ge9 P12 O72,2.2966,{'mp-2715306': <CalcType.GGA_Structure_Optimization: 'GGA Structure Optimization'>}
mp-2715304,Na12 Ca2 Si4 Ge6 P8 O48,2.133899999999999,{'mp-2715304': <CalcType.GGA_Structure_Optimization: 'GGA Structure Optimization'>}
mp-2715278,Na18 Ta3 In9 Si6 P12 O72,1.0192,{'mp-2715278': <CalcType.GGA_Structure_Optimization: 'GGA Structure Optimization'>}
mp-2715280,Na12 Y6 Ta2 Si4 P8 O48,3.5845000000000002,{'mp-2715280': <CalcType.GGA_Structure_Optimization: 'GGA Structure Optimization'>}
mp-2715302,Na18 Sc9 Nb3 Si6 P12 O72,2.4788,{'mp-2715302': <CalcType.GGA_Structure_Optimization: 'GGA Structure Optimization'>}
mp-2715294,Na18 La9 Nb3 Si6 P12 O72,2.4475,{'mp-2715294': <CalcType.GGA_Structure_Optimization: 'GGA Structure Optimization'>}
mp-2715312,Na18 Ta3 Al9 Si6 P12 O72,3.1924,{'mp-2715312': <CalcType.GGA_Structure_Optimization: 'GGA Structure Optimization'>}
mp-2715323,Na18 Ca3 Zr9 Si6 P12 O72,3.6024000000000003,{'mp-2715323': <CalcType.GGA_Structure_Optimization: 'GGA Structure Optimization'>}
mp-2715320,Na18 Hf9 Zn3 Si6 P12 O72,4.101500000000001,{'mp-2715320': <CalcType.GGA_Structure_Optimization: 'GGA Structure Optimization'>}
mp-2715348,Na18 Ca3 Si6 Sn9 P12 O72,2.0405,{'mp-2715348': <CalcType.GGA_Structure_Optimization: 'GGA Structure Optimization'>}
mp-2715325,Na18 Ti9 Zn3 Si6 P12 O72,2.129499999999999,{'mp-2715325': <CalcType.GGA_Structure_Optimization: 'GGA Structure Optimization'>}
mp-2715341,Na12 Ta2 Al6 Si4 P8 O48,3.3522,{'mp-2715341': <CalcType.GGA_Structure_Optimization: 'GGA Structure Optimization'>}
mp-2715344,Na18 Mg3 Si6 Sn9 P12 O72,2.364999999999999,{'mp-2715344': <CalcType.GGA_Structure_Optimization: 'GGA Structure Optimization'>}
mp-2715370,Na12 Ca2 Ti6 Si4 P8 O48,2.548599999999999,{'mp-2715370': <CalcType.GGA_Structure_Optimization: 'GGA Structure Optimization'>}
mp-2715354,Na18 Nb3 Ga9 Si6 P12 O72,2.551699999999999,{'mp-2715354': <CalcType.GGA_Structure_Optimization: 'GGA Structure Optimization'>}
mp-2715364,Na12 La6 Ta2 Si4 P8 O48,3.6096,{'mp-2715364': <CalcType.GGA_Structure_Optimization: 'GGA Structure Optimization'>}
mp-2715353,Na12 Mg2 Si4 Ge6 P8 O48,2.437699999999999,{'mp-2715353': <CalcType.GGA_Structure_Optimization: 'GGA Structure Optimization'>}
mp-2715383,Na12 Nb2 In6 Si4 P8 O48,1.906699999999999,{'mp-2715383': <CalcType.GGA_Structure_Optimization: 'GGA Structure Optimization'>}
mp-2715392,Na12 Nb2 Al6 Si4 P8 O48,2.4567,{'mp-2715392': <CalcType.GGA_Structure_Optimization: 'GGA Structure Optimization'>}
mp-2715379,Na12 Hf6 Mg2 Si4 P8 O48,4.5678,{'mp-2715379': <CalcType.GGA_Structure_Optimization: 'GGA Structure Optimization'>}
mp-2715380,Na18 Sc9 Ta3 Si6 P12 O72,3.324499999999999,{'mp-2715380': <CalcType.GGA_Structure_Optimization: 'GGA Structure Optimization'>}
mp-2715358,Na12 Mg2 Ti6 Si4 P8 O48,2.5145,{'mp-2715358': <CalcType.GGA_Structure_Optimization: 'GGA Structure Optimization'>}
mp-2715424,Na12 Zr6 Zn2 Si4 P8 O48,4.1312,{'mp-2715424': <CalcType.GGA_Structure_Optimization: 'GGA Structure Optimization'>}
mp-2715436,Na18 Ca3 Ti9 Si6 P12 O72,2.1181,{'mp-2715436': <CalcType.GGA_Structure_Optimization: 'GGA Structure Optimization'>}
mp-2715397,Na18 Mg3 Ti9 Si6 P12 O72,2.1506,{'mp-2715397': <CalcType.GGA_Structure_Optimization: 'GGA Structure Optimization'>}
mp-2715450,Na12 Mg2 Zr6 Si4 P8 O48,4.0667,{'mp-2715450': <CalcType.GGA_Structure_Optimization: 'GGA Structure Optimization'>}
mp-2715421,Na18 Y9 Ta3 Si6 P12 O72,3.4046,{'mp-2715421': <CalcType.GGA_Structure_Optimization: 'GGA Structure Optimization'>}
mp-2715449,Na12 Y6 Nb2 Si4 P8 O48,2.7672,{'mp-2715449': <CalcType.GGA_Structure_Optimization: 'GGA Structure Optimization'>}