Material ID,Composition,Band Gap,Calc Types
mp-698430,Mn4 H36 C4 N4 Cl12 O8,2.2987,"{'mp-818350': <CalcType.GGA_U_Static: 'GGA+U Static'>, 'mp-743948': <CalcType.GGA_U_Structure_Optimization: 'GGA+U Structure Optimization'>, 'mp-824160': <CalcType.GGA_U_NSCF_Line: 'GGA+U NSCF Line'>, 'mp-732358': <CalcType.GGA_Static: 'GGA Static'>, 'mp-1361699': <CalcType.GGA_U_Static: 'GGA+U Static'>, 'mp-824940': <CalcType.GGA_U_NSCF_Line: 'GGA+U NSCF Line'>, 'mp-698430': <CalcType.GGA_Structure_Optimization: 'GGA Structure Optimization'>, 'mp-863832': <CalcType.GGA_Static: 'GGA Static'>, 'mp-864322': <CalcType.GGA_NSCF_Line: 'GGA NSCF Line'>, 'mp-1897967': <CalcType.GGA_U_Static: 'GGA+U Static'>}"
mp-726682,Te2 C8 S8 N16 Cl4 O4,0.5733,"{'mp-726682': <CalcType.GGA_Static: 'GGA Static'>, 'mp-739618': <CalcType.GGA_NSCF_Line: 'GGA NSCF Line'>}"
mp-774223,K16 H16 Os8 C8 Cl40 O16,0.558,"{'mp-853837': <CalcType.GGA_Static: 'GGA Static'>, 'mp-774223': <CalcType.GGA_Structure_Optimization: 'GGA Structure Optimization'>, 'mp-996067': <CalcType.GGA_NSCF_Line: 'GGA NSCF Line'>, 'mp-1335913': <CalcType.GGA_Static: 'GGA Static'>, 'mp-996689': <CalcType.GGA_NSCF_Line: 'GGA NSCF Line'>}"
mp-1190433,Co4 H20 C4 N4 Cl8 O8,1.7077,"{'mp-1190433': <CalcType.GGA_U_Structure_Optimization: 'GGA+U Structure Optimization'>, 'mp-1280634': <CalcType.GGA_U_Structure_Optimization: 'GGA+U Structure Optimization'>, 'mp-1297840': <CalcType.GGA_U_Static: 'GGA+U Static'>, 'mp-1284694': <CalcType.GGA_U_Static: 'GGA+U Static'>, 'mp-1321306': <CalcType.GGA_U_Static: 'GGA+U Static'>, 'mp-1312390': <CalcType.GGA_U_Structure_Optimization: 'GGA+U Structure Optimization'>, 'mp-1303445': <CalcType.GGA_U_Static: 'GGA+U Static'>, 'mp-1319966': <CalcType.GGA_U_Structure_Optimization: 'GGA+U Structure Optimization'>, 'mp-1309540': <CalcType.GGA_U_Static: 'GGA+U Static'>, 'mp-1307328': <CalcType.GGA_U_Structure_Optimization: 'GGA+U Structure Optimization'>, 'mp-1303754': <CalcType.GGA_U_Structure_Optimization: 'GGA+U Structure Optimization'>, 'mp-1302311': <CalcType.GGA_U_Static: 'GGA+U Static'>, 'mp-1308276': <CalcType.GGA_U_Structure_Optimization: 'GGA+U Structure Optimization'>, 'mp-1306077': <CalcType.GGA_U_Structure_Optimization: 'GGA+U Structure Optimization'>, 'mp-1315052': <CalcType.GGA_U_Static: 'GGA+U Static'>, 'mp-1306873': <CalcType.GGA_U_Static: 'GGA+U Static'>, 'mp-1305390': <CalcType.GGA_U_Structure_Optimization: 'GGA+U Structure Optimization'>, 'mp-1319617': <CalcType.GGA_U_Static: 'GGA+U Static'>, 'mp-1302540': <CalcType.GGA_U_Structure_Optimization: 'GGA+U Structure Optimization'>, 'mp-1421041': <CalcType.GGA_U_Static: 'GGA+U Static'>, 'mp-1671620': <CalcType.GGA_U_NSCF_Uniform: 'GGA+U NSCF Uniform'>, 'mp-1892475': <CalcType.GGA_U_Static: 'GGA+U Static'>, 'mp-1605383': <CalcType.GGA_U_NSCF_Line: 'GGA+U NSCF Line'>, 'mp-2138183': <CalcType.GGA_U_NSCF_Line: 'GGA+U NSCF Line'>, 'mp-2686116': <CalcType.GGA_U_NSCF_Line: 'GGA+U NSCF Line'>}"
mp-1190493,Ni4 H20 C4 N4 Cl8 O8,0.0,"{'mp-1190493': <CalcType.GGA_U_Structure_Optimization: 'GGA+U Structure Optimization'>, 'mp-1298573': <CalcType.GGA_U_Structure_Optimization: 'GGA+U Structure Optimization'>, 'mp-1277565': <CalcType.GGA_U_Structure_Optimization: 'GGA+U Structure Optimization'>, 'mp-1310829': <CalcType.GGA_U_Structure_Optimization: 'GGA+U Structure Optimization'>, 'mp-1314629': <CalcType.GGA_U_Static: 'GGA+U Static'>, 'mp-1312500': <CalcType.GGA_U_Static: 'GGA+U Static'>, 'mp-1315499': <CalcType.GGA_U_Static: 'GGA+U Static'>, 'mp-1302851': <CalcType.GGA_U_Static: 'GGA+U Static'>, 'mp-1306631': <CalcType.GGA_U_Structure_Optimization: 'GGA+U Structure Optimization'>, 'mp-1313354': <CalcType.GGA_U_Static: 'GGA+U Static'>, 'mp-1320828': <CalcType.GGA_U_Structure_Optimization: 'GGA+U Structure Optimization'>, 'mp-1320839': <CalcType.GGA_U_Static: 'GGA+U Static'>, 'mp-1301523': <CalcType.GGA_U_Structure_Optimization: 'GGA+U Structure Optimization'>, 'mp-1321837': <CalcType.GGA_U_Static: 'GGA+U Static'>, 'mp-1308440': <CalcType.GGA_U_Structure_Optimization: 'GGA+U Structure Optimization'>, 'mp-1319000': <CalcType.GGA_U_Structure_Optimization: 'GGA+U Structure Optimization'>, 'mp-1362743': <CalcType.GGA_U_Static: 'GGA+U Static'>, 'mp-1419477': <CalcType.GGA_U_Static: 'GGA+U Static'>, 'mp-1709189': <CalcType.GGA_U_NSCF_Uniform: 'GGA+U NSCF Uniform'>, 'mp-1605603': <CalcType.GGA_U_NSCF_Line: 'GGA+U NSCF Line'>, 'mp-2138968': <CalcType.GGA_U_NSCF_Line: 'GGA+U NSCF Line'>}"
mp-1190513,Fe4 H20 C4 N4 Cl8 O8,3.6932,"{'mp-1190513': <CalcType.GGA_U_Structure_Optimization: 'GGA+U Structure Optimization'>, 'mp-1275090': <CalcType.GGA_U_Static: 'GGA+U Static'>, 'mp-1277567': <CalcType.GGA_U_Static: 'GGA+U Static'>, 'mp-1319891': <CalcType.GGA_U_Static: 'GGA+U Static'>, 'mp-1310235': <CalcType.GGA_U_Structure_Optimization: 'GGA+U Structure Optimization'>, 'mp-1314730': <CalcType.GGA_U_Static: 'GGA+U Static'>, 'mp-1302076': <CalcType.GGA_U_Static: 'GGA+U Static'>, 'mp-1301418': <CalcType.GGA_U_Structure_Optimization: 'GGA+U Structure Optimization'>, 'mp-1303871': <CalcType.GGA_U_Static: 'GGA+U Static'>, 'mp-1303903': <CalcType.GGA_U_Structure_Optimization: 'GGA+U Structure Optimization'>, 'mp-1311452': <CalcType.GGA_U_Structure_Optimization: 'GGA+U Structure Optimization'>, 'mp-1309245': <CalcType.GGA_U_Structure_Optimization: 'GGA+U Structure Optimization'>, 'mp-1321214': <CalcType.GGA_U_Structure_Optimization: 'GGA+U Structure Optimization'>, 'mp-1315264': <CalcType.GGA_U_Structure_Optimization: 'GGA+U Structure Optimization'>, 'mp-1305581': <CalcType.GGA_U_Static: 'GGA+U Static'>, 'mp-1433284': <CalcType.GGA_U_Static: 'GGA+U Static'>, 'mp-1709272': <CalcType.GGA_U_NSCF_Uniform: 'GGA+U NSCF Uniform'>, 'mp-1606516': <CalcType.GGA_U_NSCF_Line: 'GGA+U NSCF Line'>, 'mp-2170417': <CalcType.GGA_U_NSCF_Line: 'GGA+U NSCF Line'>, 'mp-2340450': <CalcType.GGA_U_NSCF_Line: 'GGA+U NSCF Line'>}"
mp-1197759,Cu8 As16 H48 C16 I8 O16,2.5975,"{'mp-1197759': <CalcType.GGA_Structure_Optimization: 'GGA Structure Optimization'>, 'mp-1985858': <CalcType.GGA_Static: 'GGA Static'>}"
mp-1202038,Tl2 H24 C8 S4 I6 O4,1.8029000000000002,"{'mp-1202038': <CalcType.GGA_Structure_Optimization: 'GGA Structure Optimization'>, 'mp-1848575': <CalcType.GGA_Static: 'GGA Static'>, 'mp-1984495': <CalcType.GGA_Static: 'GGA Static'>}"
mp-640564,Ag2 Sb2 C12 N8 O4 F12,1.4658,"{'mp-640564': <CalcType.GGA_Structure_Optimization: 'GGA Structure Optimization'>, 'mp-664086': <CalcType.GGA_Static: 'GGA Static'>, 'mp-679028': <CalcType.GGA_NSCF_Line: 'GGA NSCF Line'>, 'mp-1345322': <CalcType.GGA_Static: 'GGA Static'>, 'mp-1876490': <CalcType.GGA_Static: 'GGA Static'>, 'mp-700248': <CalcType.GGA_NSCF_Line: 'GGA NSCF Line'>}"
mp-735584,Rb8 Fe4 H8 C20 N24 O8,2.779,"{'mp-824141': <CalcType.GGA_U_NSCF_Line: 'GGA+U NSCF Line'>, 'mp-735584': <CalcType.GGA_U_Structure_Optimization: 'GGA+U Structure Optimization'>, 'mp-818278': <CalcType.GGA_U_Static: 'GGA+U Static'>, 'mp-834375': <CalcType.GGA_Static: 'GGA Static'>, 'mp-841189': <CalcType.GGA_NSCF_Line: 'GGA NSCF Line'>, 'mp-1329984': <CalcType.GGA_U_Static: 'GGA+U Static'>, 'mp-1849854': <CalcType.GGA_U_Static: 'GGA+U Static'>, 'mp-842000': <CalcType.GGA_NSCF_Line: 'GGA NSCF Line'>, 'mp-825056': <CalcType.GGA_U_NSCF_Line: 'GGA+U NSCF Line'>}"
mp-727111,Mn2 H32 C8 N2 O4 F8,2.2738,"{'mp-743971': <CalcType.GGA_U_Structure_Optimization: 'GGA+U Structure Optimization'>, 'mp-818349': <CalcType.GGA_U_Static: 'GGA+U Static'>, 'mp-824157': <CalcType.GGA_U_NSCF_Line: 'GGA+U NSCF Line'>, 'mp-1238008': <CalcType.GGA_U_Structure_Optimization: 'GGA+U Structure Optimization'>, 'mp-727111': <CalcType.GGA_Static: 'GGA Static'>, 'mp-840000': <CalcType.GGA_Static: 'GGA Static'>, 'mp-840649': <CalcType.GGA_NSCF_Line: 'GGA NSCF Line'>, 'mp-1369075': <CalcType.GGA_U_Static: 'GGA+U Static'>, 'mp-1825839': <CalcType.GGA_U_Static: 'GGA+U Static'>, 'mp-841693': <CalcType.GGA_NSCF_Line: 'GGA NSCF Line'>, 'mp-824945': <CalcType.GGA_U_NSCF_Line: 'GGA+U NSCF Line'>}"
mp-721712,Na4 H16 C4 S4 N4 O8,3.9944,"{'mp-721712': <CalcType.GGA_Structure_Optimization: 'GGA Structure Optimization'>, 'mp-844046': <CalcType.GGA_NSCF_Line: 'GGA NSCF Line'>, 'mp-734107': <CalcType.GGA_Static: 'GGA Static'>, 'mp-1389011': <CalcType.GGA_Static: 'GGA Static'>, 'mp-1738323': <CalcType.GGA_NSCF_Uniform: 'GGA NSCF Uniform'>, 'mp-1825870': <CalcType.GGA_Static: 'GGA Static'>, 'mp-745610': <CalcType.GGA_NSCF_Line: 'GGA NSCF Line'>}"
mp-726558,Mn4 H48 C8 N4 Cl12 O8,4.0897,"{'mp-743974': <CalcType.GGA_U_Structure_Optimization: 'GGA+U Structure Optimization'>, 'mp-818369': <CalcType.GGA_U_Static: 'GGA+U Static'>, 'mp-824159': <CalcType.GGA_U_NSCF_Line: 'GGA+U NSCF Line'>, 'mp-726558': <CalcType.GGA_Static: 'GGA Static'>, 'mp-839589': <CalcType.GGA_Static: 'GGA Static'>, 'mp-840636': <CalcType.GGA_NSCF_Line: 'GGA NSCF Line'>, 'mp-1324858': <CalcType.GGA_U_Static: 'GGA+U Static'>, 'mp-1851311': <CalcType.GGA_U_Static: 'GGA+U Static'>, 'mp-841259': <CalcType.GGA_NSCF_Line: 'GGA NSCF Line'>, 'mp-824975': <CalcType.GGA_U_NSCF_Line: 'GGA+U NSCF Line'>}"
mp-734836,Zn2 H24 C12 S4 N20 O4,3.8023,"{'mp-734836': <CalcType.GGA_Structure_Optimization: 'GGA Structure Optimization'>, 'mp-844052': <CalcType.GGA_NSCF_Line: 'GGA NSCF Line'>, 'mp-735972': <CalcType.GGA_Static: 'GGA Static'>, 'mp-1356758': <CalcType.GGA_Static: 'GGA Static'>, 'mp-1896959': <CalcType.GGA_Static: 'GGA Static'>, 'mp-844836': <CalcType.GGA_NSCF_Line: 'GGA NSCF Line'>, 'mp-736043': <CalcType.GGA_NSCF_Line: 'GGA NSCF Line'>}"
mp-738680,Zr4 H108 C32 N8 Cl20 O8,3.9333,"{'mp-738680': <CalcType.GGA_Structure_Optimization: 'GGA Structure Optimization'>, 'mp-746061': <CalcType.GGA_Static: 'GGA Static'>, 'mp-750342': <CalcType.GGA_NSCF_Line: 'GGA NSCF Line'>, 'mp-751056': <CalcType.GGA_NSCF_Line: 'GGA NSCF Line'>}"
mp-849785,Na4 Cr4 H88 N24 Cl16 O8,3.8276000000000003,"{'mp-850503': <CalcType.GGA_U_Structure_Optimization: 'GGA+U Structure Optimization'>, 'mp-858176': <CalcType.GGA_U_NSCF_Line: 'GGA+U NSCF Line'>, 'mp-857205': <CalcType.GGA_U_Static: 'GGA+U Static'>, 'mp-857951': <CalcType.GGA_NSCF_Line: 'GGA NSCF Line'>, 'mp-849785': <CalcType.GGA_Structure_Optimization: 'GGA Structure Optimization'>, 'mp-856992': <CalcType.GGA_Static: 'GGA Static'>, 'mp-1334637': <CalcType.GGA_U_Static: 'GGA+U Static'>}"
mp-1104248,Cd1 H6 C2 I2 N2 O2,2.7712,"{'mp-1104248': <CalcType.GGA_Structure_Optimization: 'GGA Structure Optimization'>, 'mp-1860775': <CalcType.GGA_Static: 'GGA Static'>, 'mp-1984304': <CalcType.GGA_Static: 'GGA Static'>}"
mp-1193721,Fe1 H12 C8 S2 N2 O2,2.5357000000000003,"{'mp-1193721': <CalcType.GGA_U_Structure_Optimization: 'GGA+U Structure Optimization'>, 'mp-1839487': <CalcType.GGA_U_Static: 'GGA+U Static'>, 'mp-1986522': <CalcType.GGA_U_Static: 'GGA+U Static'>}"
mp-1193229,Mn1 H12 C8 S2 N2 O2,2.5994,"{'mp-1193229': <CalcType.GGA_U_Structure_Optimization: 'GGA+U Structure Optimization'>, 'mp-1839288': <CalcType.GGA_U_Static: 'GGA+U Static'>, 'mp-1987018': <CalcType.GGA_U_Static: 'GGA+U Static'>}"
mp-1194277,Cr1 H12 C8 S2 N2 O2,2.0106,"{'mp-1194277': <CalcType.GGA_U_Structure_Optimization: 'GGA+U Structure Optimization'>, 'mp-1843024': <CalcType.GGA_U_Static: 'GGA+U Static'>, 'mp-1981778': <CalcType.GGA_U_Static: 'GGA+U Static'>}"
mp-1204695,Tc3 H36 C12 S6 Cl12 O6,1.0245,"{'mp-1204695': <CalcType.GGA_Structure_Optimization: 'GGA Structure Optimization'>, 'mp-1330898': <CalcType.GGA_Static: 'GGA Static'>, 'mp-1851598': <CalcType.GGA_Static: 'GGA Static'>}"
mp-1205285,H24 C4 I4 N12 O8 F8,4.0078,"{'mp-1205285': <CalcType.GGA_Structure_Optimization: 'GGA Structure Optimization'>, 'mp-1920587': <CalcType.GGA_Static: 'GGA Static'>, 'mp-1984472': <CalcType.GGA_Static: 'GGA Static'>}"
mp-1226454,Co2 Si2 H30 N12 O4 F12,2.7165,"{'mp-1226454': <CalcType.GGA_U_Structure_Optimization: 'GGA+U Structure Optimization'>, 'mp-1871103': <CalcType.GGA_U_Static: 'GGA+U Static'>}"
mp-24664,Zn2 H16 C4 N8 Cl4 O4,4.7564,"{'mp-740081': <CalcType.GGA_NSCF_Line: 'GGA NSCF Line'>, 'mp-725900': <CalcType.GGA_Static: 'GGA Static'>, 'mp-24664': <CalcType.GGA_Structure_Optimization: 'GGA Structure Optimization'>, 'mp-1385304': <CalcType.GGA_Static: 'GGA Static'>, 'mp-1746671': <CalcType.GGA_NSCF_Uniform: 'GGA NSCF Uniform'>, 'mp-1814386': <CalcType.GGA_Static: 'GGA Static'>, 'mp-748160': <CalcType.GGA_NSCF_Line: 'GGA NSCF Line'>}"
mp-559063,Cs2 B2 C6 N2 O4 F18,3.4032,"{'mp-734622': <CalcType.GGA_NSCF_Line: 'GGA NSCF Line'>, 'mp-723051': <CalcType.GGA_Static: 'GGA Static'>, 'mp-559063': <CalcType.GGA_Structure_Optimization: 'GGA Structure Optimization'>, 'mp-1408071': <CalcType.GGA_Static: 'GGA Static'>, 'mp-1733249': <CalcType.GGA_NSCF_Uniform: 'GGA NSCF Uniform'>, 'mp-1825758': <CalcType.GGA_Static: 'GGA Static'>, 'mp-1654361': <CalcType.GGA_NSCF_Line: 'GGA NSCF Line'>, 'mp-744166': <CalcType.GGA_NSCF_Line: 'GGA NSCF Line'>, 'mp-2100105': <CalcType.GGA_NSCF_Line: 'GGA NSCF Line'>, 'mp-2301798': <CalcType.GGA_NSCF_Line: 'GGA NSCF Line'>}"
mp-560363,V2 H28 C8 N2 O4 F6,3.0679,"{'mp-600227': <CalcType.GGA_U_Structure_Optimization: 'GGA+U Structure Optimization'>, 'mp-654691': <CalcType.GGA_U_Static: 'GGA+U Static'>, 'mp-796528': <CalcType.GGA_U_Static: 'GGA+U Static'>, 'mp-819551': <CalcType.GGA_U_NSCF_Line: 'GGA+U NSCF Line'>, 'mp-565487': <CalcType.GGA_U_Structure_Optimization: 'GGA+U Structure Optimization'>, 'mp-565526': <CalcType.GGA_U_Structure_Optimization: 'GGA+U Structure Optimization'>, 'mp-1178892': <CalcType.GGA_U_Structure_Optimization: 'GGA+U Structure Optimization'>, 'mp-1202515': <CalcType.GGA_U_Structure_Optimization: 'GGA+U Structure Optimization'>, 'mp-560363': <CalcType.GGA_Structure_Optimization: 'GGA Structure Optimization'>, 'mp-560640': <CalcType.GGA_Structure_Optimization: 'GGA Structure Optimization'>, 'mp-654650': <CalcType.GGA_Static: 'GGA Static'>, 'mp-1345632': <CalcType.GGA_U_Static: 'GGA+U Static'>, 'mp-1679101': <CalcType.GGA_U_NSCF_Uniform: 'GGA+U NSCF Uniform'>, 'mp-1820697': <CalcType.GGA_U_Static: 'GGA+U Static'>, 'mp-820346': <CalcType.GGA_U_NSCF_Line: 'GGA+U NSCF Line'>}"
mp-696290,Cu1 H8 C4 N8 Cl2 O2,0.0,"{'mp-696290': <CalcType.GGA_Structure_Optimization: 'GGA Structure Optimization'>, 'mp-939681': <CalcType.GGA_Static: 'GGA Static'>, 'mp-950149': <CalcType.GGA_NSCF_Line: 'GGA NSCF Line'>, 'mp-950936': <CalcType.GGA_NSCF_Line: 'GGA NSCF Line'>, 'mp-1429965': <CalcType.GGA_Static: 'GGA Static'>, 'mp-1672971': <CalcType.GGA_NSCF_Uniform: 'GGA NSCF Uniform'>, 'mp-1807329': <CalcType.GGA_Static: 'GGA Static'>, 'mp-1607745': <CalcType.GGA_NSCF_Line: 'GGA NSCF Line'>, 'mp-2169028': <CalcType.GGA_NSCF_Line: 'GGA NSCF Line'>, 'mp-2686059': <CalcType.GGA_NSCF_Line: 'GGA NSCF Line'>}"
mp-721789,Cu2 H36 C8 N20 Cl4 O4,0.9943000000000001,"{'mp-883968': <CalcType.GGA_Static: 'GGA Static'>, 'mp-721789': <CalcType.GGA_Structure_Optimization: 'GGA Structure Optimization'>, 'mp-899151': <CalcType.GGA_NSCF_Line: 'GGA NSCF Line'>, 'mp-1352137': <CalcType.GGA_Static: 'GGA Static'>, 'mp-1886192': <CalcType.GGA_Static: 'GGA Static'>}"
mp-734296,K5 Au5 C10 I2 N10 O2,0.0,{'mp-734296': <CalcType.GGA_Static: 'GGA Static'>}
mp-766429,Si1 H18 C2 N8 O2 F6,4.9958,"{'mp-855329': <CalcType.GGA_NSCF_Line: 'GGA NSCF Line'>, 'mp-852491': <CalcType.GGA_Static: 'GGA Static'>, 'mp-766429': <CalcType.GGA_Structure_Optimization: 'GGA Structure Optimization'>, 'mp-1257494': <CalcType.GGA_Structure_Optimization: 'GGA Structure Optimization'>, 'mp-1258637': <CalcType.GGA_NMR_Electric_Field_Gradient: 'GGA NMR Electric Field Gradient'>, 'mp-1262477': <CalcType.GGA_NMR_Nuclear_Shielding: 'GGA NMR Nuclear Shielding'>, 'mp-1409897': <CalcType.GGA_Static: 'GGA Static'>, 'mp-1751494': <CalcType.GGA_NSCF_Uniform: 'GGA NSCF Uniform'>, 'mp-1840804': <CalcType.GGA_Static: 'GGA Static'>, 'mp-1623058': <CalcType.GGA_NSCF_Line: 'GGA NSCF Line'>, 'mp-855872': <CalcType.GGA_NSCF_Line: 'GGA NSCF Line'>, 'mp-2115063': <CalcType.GGA_NSCF_Line: 'GGA NSCF Line'>, 'mp-2305882': <CalcType.GGA_NSCF_Line: 'GGA NSCF Line'>}"
mp-1179444,Re4 C4 S4 N8 Cl12 O8,0.601899999999999,"{'mp-1179444': <CalcType.GGA_Structure_Optimization: 'GGA Structure Optimization'>, 'mp-1328813': <CalcType.GGA_Static: 'GGA Static'>, 'mp-1848890': <CalcType.GGA_Static: 'GGA Static'>}"
mp-1204366,Re4 C4 S4 N8 Cl12 O8,0.359,"{'mp-1204366': <CalcType.GGA_Structure_Optimization: 'GGA Structure Optimization'>, 'mp-1332605': <CalcType.GGA_Static: 'GGA Static'>, 'mp-1846459': <CalcType.GGA_Static: 'GGA Static'>}"
mp-559423,Ag4 H32 C20 S8 O8 F12,3.3148,"{'mp-666547': <CalcType.GGA_NSCF_Line: 'GGA NSCF Line'>, 'mp-682027': <CalcType.GGA_NSCF_Line: 'GGA NSCF Line'>, 'mp-559423': <CalcType.GGA_Structure_Optimization: 'GGA Structure Optimization'>, 'mp-658106': <CalcType.GGA_Static: 'GGA Static'>, 'mp-1364738': <CalcType.GGA_Static: 'GGA Static'>, 'mp-1850948': <CalcType.GGA_Static: 'GGA Static'>}"
mp-605676,Ag4 H32 C28 S8 O8 F28,3.1637,"{'mp-684374': <CalcType.GGA_NSCF_Line: 'GGA NSCF Line'>, 'mp-658961': <CalcType.GGA_Static: 'GGA Static'>, 'mp-605676': <CalcType.GGA_Structure_Optimization: 'GGA Structure Optimization'>, 'mp-704982': <CalcType.GGA_NSCF_Line: 'GGA NSCF Line'>, 'mp-1337485': <CalcType.GGA_Static: 'GGA Static'>, 'mp-1628642': <CalcType.GGA_NSCF_Line: 'GGA NSCF Line'>}"
mp-1199928,Na4 H24 C4 N8 Cl4 O8,4.8889,"{'mp-1199928': <CalcType.GGA_Structure_Optimization: 'GGA Structure Optimization'>, 'mp-1379782': <CalcType.GGA_Static: 'GGA Static'>, 'mp-1884210': <CalcType.GGA_Static: 'GGA Static'>}"
mp-1197899,Mn4 H112 C48 Br8 N32 O8,3.8754,"{'mp-1197899': <CalcType.GGA_U_Structure_Optimization: 'GGA+U Structure Optimization'>, 'mp-1985708': <CalcType.GGA_U_Static: 'GGA+U Static'>}"
mp-1204973,Cd6 H12 C4 I12 N4 O4,2.5574,"{'mp-1204973': <CalcType.GGA_Structure_Optimization: 'GGA Structure Optimization'>, 'mp-1848096': <CalcType.GGA_Static: 'GGA Static'>, 'mp-1983569': <CalcType.GGA_Static: 'GGA Static'>}"
mp-1201403,Zn2 H26 Ru2 N10 Cl8 O4,2.6024000000000003,"{'mp-1201403': <CalcType.GGA_Structure_Optimization: 'GGA Structure Optimization'>, 'mp-1890832': <CalcType.GGA_Static: 'GGA Static'>, 'mp-1981789': <CalcType.GGA_Static: 'GGA Static'>}"
mp-1196293,K10 Mo6 H4 S8 O4 F22,0.10270000000000001,"{'mp-1196293': <CalcType.GGA_U_Structure_Optimization: 'GGA+U Structure Optimization'>, 'mp-1370931': <CalcType.GGA_U_Static: 'GGA+U Static'>, 'mp-1849615': <CalcType.GGA_U_Static: 'GGA+U Static'>}"
mp-1196541,K20 Li2 Zr12 H8 O4 F70,5.3659,"{'mp-1196541': <CalcType.GGA_Structure_Optimization: 'GGA Structure Optimization'>, 'mp-1985316': <CalcType.GGA_Static: 'GGA Static'>}"
mp-1202315,Ti2 Si14 H84 C28 Cl4 O4,2.4531,"{'mp-1202315': <CalcType.GGA_Structure_Optimization: 'GGA Structure Optimization'>, 'mp-1366067': <CalcType.GGA_Static: 'GGA Static'>}"
mp-1215373,Zr4 H32 C8 S4 O8 F16,4.5471,"{'mp-1215373': <CalcType.GGA_Structure_Optimization: 'GGA Structure Optimization'>, 'mp-1326098': <CalcType.GGA_Static: 'GGA Static'>, 'mp-1920238': <CalcType.GGA_Static: 'GGA Static'>, 'mp-1583792': <CalcType.GGA_NSCF_Line: 'GGA NSCF Line'>}"
mp-977569,Na2 H12 C2 N4 Cl2 O4,5.0096,"{'mp-977569': <CalcType.GGA_Structure_Optimization: 'GGA Structure Optimization'>, 'mp-1005428': <CalcType.GGA_Static: 'GGA Static'>, 'mp-1010891': <CalcType.GGA_NSCF_Line: 'GGA NSCF Line'>, 'mp-1417696': <CalcType.GGA_Static: 'GGA Static'>, 'mp-1671307': <CalcType.GGA_NSCF_Uniform: 'GGA NSCF Uniform'>, 'mp-1809616': <CalcType.GGA_Static: 'GGA Static'>, 'mp-1012851': <CalcType.GGA_NSCF_Line: 'GGA NSCF Line'>, 'mp-1609725': <CalcType.GGA_NSCF_Line: 'GGA NSCF Line'>, 'mp-2172985': <CalcType.GGA_NSCF_Line: 'GGA NSCF Line'>}"
mp-1212132,K6 Na2 Mo2 C8 N8 O4,2.58,"{'mp-1212132': <CalcType.GGA_U_Structure_Optimization: 'GGA+U Structure Optimization'>, 'mp-1238644': <CalcType.GGA_U_Structure_Optimization: 'GGA+U Structure Optimization'>, 'mp-1885836': <CalcType.GGA_U_Static: 'GGA+U Static'>}"