Material ID,Composition,Band Gap,Calc Types
mp-753777,Li6 Fe1 Co1 P2 C2 O14,0.0,"{'mp-767298': <CalcType.GGA_U_Structure_Optimization: 'GGA+U Structure Optimization'>, 'mp-802304': <CalcType.GGA_U_Static: 'GGA+U Static'>, 'mp-809627': <CalcType.GGA_U_NSCF_Line: 'GGA+U NSCF Line'>, 'mp-753777': <CalcType.GGA_Structure_Optimization: 'GGA Structure Optimization'>, 'mp-1343849': <CalcType.GGA_U_Static: 'GGA+U Static'>, 'mp-809862': <CalcType.GGA_U_NSCF_Line: 'GGA+U NSCF Line'>}"
mp-753882,Li6 Mn1 V1 P2 C2 O14,2.884699999999999,"{'mp-767281': <CalcType.GGA_U_Structure_Optimization: 'GGA+U Structure Optimization'>, 'mp-802270': <CalcType.GGA_U_Static: 'GGA+U Static'>, 'mp-809598': <CalcType.GGA_U_NSCF_Line: 'GGA+U NSCF Line'>, 'mp-753882': <CalcType.GGA_Structure_Optimization: 'GGA Structure Optimization'>, 'mp-830492': <CalcType.GGA_NSCF_Line: 'GGA NSCF Line'>, 'mp-827956': <CalcType.GGA_Static: 'GGA Static'>, 'mp-1372252': <CalcType.GGA_U_Static: 'GGA+U Static'>, 'mp-1574413': <CalcType.GGA_U_Structure_Optimization: 'GGA+U Structure Optimization'>, 'mp-1651548': <CalcType.GGA_U_Static: 'GGA+U Static'>, 'mp-809838': <CalcType.GGA_U_NSCF_Line: 'GGA+U NSCF Line'>, 'mp-831533': <CalcType.GGA_NSCF_Line: 'GGA NSCF Line'>}"
mp-756847,Li12 V2 Fe2 P4 C4 O28,2.7163,"{'mp-767284': <CalcType.GGA_U_Structure_Optimization: 'GGA+U Structure Optimization'>, 'mp-809602': <CalcType.GGA_U_NSCF_Line: 'GGA+U NSCF Line'>, 'mp-802281': <CalcType.GGA_U_Static: 'GGA+U Static'>, 'mp-756847': <CalcType.GGA_Structure_Optimization: 'GGA Structure Optimization'>, 'mp-884105': <CalcType.GGA_Static: 'GGA Static'>, 'mp-1374723': <CalcType.GGA_U_Static: 'GGA+U Static'>, 'mp-1579555': <CalcType.GGA_U_Structure_Optimization: 'GGA+U Structure Optimization'>, 'mp-1652060': <CalcType.GGA_U_Structure_Optimization: 'GGA+U Structure Optimization'>, 'mp-1653660': <CalcType.GGA_U_Static: 'GGA+U Static'>, 'mp-1652787': <CalcType.GGA_U_Structure_Optimization: 'GGA+U Structure Optimization'>, 'mp-1649959': <CalcType.GGA_U_Static: 'GGA+U Static'>, 'mp-1650848': <CalcType.GGA_U_Static: 'GGA+U Static'>, 'mp-1651038': <CalcType.GGA_U_Static: 'GGA+U Static'>, 'mp-1652621': <CalcType.GGA_U_Structure_Optimization: 'GGA+U Structure Optimization'>, 'mp-1653342': <CalcType.GGA_U_Static: 'GGA+U Static'>, 'mp-1650156': <CalcType.GGA_U_Structure_Optimization: 'GGA+U Structure Optimization'>, 'mp-1653169': <CalcType.GGA_U_Structure_Optimization: 'GGA+U Structure Optimization'>, 'mp-1650516': <CalcType.GGA_U_Static: 'GGA+U Static'>, 'mp-1653364': <CalcType.GGA_U_Structure_Optimization: 'GGA+U Structure Optimization'>, 'mp-1652479': <CalcType.GGA_U_Static: 'GGA+U Static'>, 'mp-1651776': <CalcType.GGA_U_Structure_Optimization: 'GGA+U Structure Optimization'>, 'mp-1652652': <CalcType.GGA_U_Structure_Optimization: 'GGA+U Structure Optimization'>, 'mp-1654265': <CalcType.GGA_U_Static: 'GGA+U Static'>, 'mp-1652326': <CalcType.GGA_U_Static: 'GGA+U Static'>, 'mp-1651427': <CalcType.GGA_U_Structure_Optimization: 'GGA+U Structure Optimization'>, 'mp-1650379': <CalcType.GGA_U_Static: 'GGA+U Static'>, 'mp-1652852': <CalcType.GGA_U_Static: 'GGA+U Static'>, 'mp-1651282': <CalcType.GGA_U_Structure_Optimization: 'GGA+U Structure Optimization'>, 'mp-1653942': <CalcType.GGA_U_Structure_Optimization: 'GGA+U Structure Optimization'>, 'mp-1651115': <CalcType.GGA_U_Structure_Optimization: 'GGA+U Structure Optimization'>, 'mp-1660474': <CalcType.GGA_U_Static: 'GGA+U Static'>, 'mp-1667717': <CalcType.GGA_U_Structure_Optimization: 'GGA+U Structure Optimization'>, 'mp-1666805': <CalcType.GGA_U_Static: 'GGA+U Static'>, 'mp-1666892': <CalcType.GGA_U_Static: 'GGA+U Static'>, 'mp-1667065': <CalcType.GGA_U_Structure_Optimization: 'GGA+U Structure Optimization'>, 'mp-1667236': <CalcType.GGA_U_Static: 'GGA+U Static'>, 'mp-1883779': <CalcType.GGA_U_Static: 'GGA+U Static'>, 'mp-809848': <CalcType.GGA_U_NSCF_Line: 'GGA+U NSCF Line'>, 'mp-1980311': <CalcType.GGA_U_Static: 'GGA+U Static'>, 'mp-1985023': <CalcType.GGA_U_Static: 'GGA+U Static'>, 'mp-1985706': <CalcType.GGA_U_Static: 'GGA+U Static'>, 'mp-1985377': <CalcType.GGA_U_Static: 'GGA+U Static'>, 'mp-1985050': <CalcType.GGA_U_Static: 'GGA+U Static'>, 'mp-1984422': <CalcType.GGA_U_Static: 'GGA+U Static'>, 'mp-1981792': <CalcType.GGA_U_Static: 'GGA+U Static'>, 'mp-1982800': <CalcType.GGA_U_Static: 'GGA+U Static'>, 'mp-1987120': <CalcType.GGA_U_Static: 'GGA+U Static'>, 'mp-1986491': <CalcType.GGA_U_Static: 'GGA+U Static'>, 'mp-1984565': <CalcType.GGA_U_Static: 'GGA+U Static'>, 'mp-1984932': <CalcType.GGA_U_Static: 'GGA+U Static'>, 'mp-1986256': <CalcType.GGA_U_Static: 'GGA+U Static'>, 'mp-1987714': <CalcType.GGA_U_Static: 'GGA+U Static'>}"
mp-753761,Li6 Mn1 Cr1 P2 C2 O14,2.4086,"{'mp-767287': <CalcType.GGA_U_Structure_Optimization: 'GGA+U Structure Optimization'>, 'mp-802286': <CalcType.GGA_U_Static: 'GGA+U Static'>, 'mp-809601': <CalcType.GGA_U_NSCF_Line: 'GGA+U NSCF Line'>, 'mp-753761': <CalcType.GGA_Structure_Optimization: 'GGA Structure Optimization'>, 'mp-1333012': <CalcType.GGA_U_Static: 'GGA+U Static'>, 'mp-1577019': <CalcType.GGA_U_Structure_Optimization: 'GGA+U Structure Optimization'>, 'mp-1649989': <CalcType.GGA_U_Static: 'GGA+U Static'>, 'mp-1924044': <CalcType.GGA_U_Static: 'GGA+U Static'>, 'mp-809845': <CalcType.GGA_U_NSCF_Line: 'GGA+U NSCF Line'>}"
mp-755968,Na5 Li1 Fe2 P2 C2 O14,3.7977,"{'mp-810396': <CalcType.GGA_U_NSCF_Line: 'GGA+U NSCF Line'>, 'mp-769718': <CalcType.GGA_U_Structure_Optimization: 'GGA+U Structure Optimization'>, 'mp-802867': <CalcType.GGA_U_Static: 'GGA+U Static'>, 'mp-755968': <CalcType.GGA_Structure_Optimization: 'GGA Structure Optimization'>, 'mp-1369656': <CalcType.GGA_U_Static: 'GGA+U Static'>, 'mp-1574702': <CalcType.GGA_U_Structure_Optimization: 'GGA+U Structure Optimization'>, 'mp-1575169': <CalcType.GGA_U_Structure_Optimization: 'GGA+U Structure Optimization'>, 'mp-1652991': <CalcType.GGA_U_Static: 'GGA+U Static'>, 'mp-1650704': <CalcType.GGA_U_Static: 'GGA+U Static'>, 'mp-1809294': <CalcType.GGA_U_Static: 'GGA+U Static'>, 'mp-811164': <CalcType.GGA_U_NSCF_Line: 'GGA+U NSCF Line'>}"
mp-756846,Li6 Cr1 Fe1 P2 C2 O14,2.4855,"{'mp-802291': <CalcType.GGA_U_Static: 'GGA+U Static'>, 'mp-809608': <CalcType.GGA_U_NSCF_Line: 'GGA+U NSCF Line'>, 'mp-767286': <CalcType.GGA_U_Structure_Optimization: 'GGA+U Structure Optimization'>, 'mp-756846': <CalcType.GGA_Structure_Optimization: 'GGA Structure Optimization'>, 'mp-884113': <CalcType.GGA_Static: 'GGA Static'>, 'mp-1330532': <CalcType.GGA_U_Static: 'GGA+U Static'>, 'mp-1574245': <CalcType.GGA_U_Structure_Optimization: 'GGA+U Structure Optimization'>, 'mp-1574708': <CalcType.GGA_U_Structure_Optimization: 'GGA+U Structure Optimization'>, 'mp-1652998': <CalcType.GGA_U_Static: 'GGA+U Static'>, 'mp-1652340': <CalcType.GGA_U_Static: 'GGA+U Static'>, 'mp-809854': <CalcType.GGA_U_NSCF_Line: 'GGA+U NSCF Line'>}"
mp-752421,Na10 Li2 Co4 P4 C4 O28,2.697,"{'mp-761297': <CalcType.GGA_U_Structure_Optimization: 'GGA+U Structure Optimization'>, 'mp-796733': <CalcType.GGA_U_Static: 'GGA+U Static'>, 'mp-797512': <CalcType.GGA_U_NSCF_Line: 'GGA+U NSCF Line'>, 'mp-752421': <CalcType.GGA_Structure_Optimization: 'GGA Structure Optimization'>, 'mp-879181': <CalcType.GGA_Static: 'GGA Static'>, 'mp-1374525': <CalcType.GGA_U_Static: 'GGA+U Static'>, 'mp-1574183': <CalcType.GGA_U_Structure_Optimization: 'GGA+U Structure Optimization'>, 'mp-1651175': <CalcType.GGA_U_Structure_Optimization: 'GGA+U Structure Optimization'>, 'mp-1652594': <CalcType.GGA_U_Structure_Optimization: 'GGA+U Structure Optimization'>, 'mp-1653867': <CalcType.GGA_U_Structure_Optimization: 'GGA+U Structure Optimization'>, 'mp-1651222': <CalcType.GGA_U_Structure_Optimization: 'GGA+U Structure Optimization'>, 'mp-1653177': <CalcType.GGA_U_Static: 'GGA+U Static'>, 'mp-1652475': <CalcType.GGA_U_Structure_Optimization: 'GGA+U Structure Optimization'>, 'mp-1651071': <CalcType.GGA_U_Static: 'GGA+U Static'>, 'mp-1660982': <CalcType.GGA_U_Static: 'GGA+U Static'>, 'mp-1660481': <CalcType.GGA_U_Static: 'GGA+U Static'>, 'mp-1667054': <CalcType.GGA_U_Structure_Optimization: 'GGA+U Structure Optimization'>, 'mp-1666660': <CalcType.GGA_U_Static: 'GGA+U Static'>, 'mp-1667586': <CalcType.GGA_U_Structure_Optimization: 'GGA+U Structure Optimization'>, 'mp-1666501': <CalcType.GGA_U_Structure_Optimization: 'GGA+U Structure Optimization'>, 'mp-1666433': <CalcType.GGA_U_Static: 'GGA+U Static'>, 'mp-798191': <CalcType.GGA_U_NSCF_Line: 'GGA+U NSCF Line'>}"
mp-754568,Na5 Li1 Mn2 P2 C2 O14,3.678599999999999,"{'mp-803049': <CalcType.GGA_U_Static: 'GGA+U Static'>, 'mp-810609': <CalcType.GGA_U_NSCF_Line: 'GGA+U NSCF Line'>, 'mp-770026': <CalcType.GGA_U_Structure_Optimization: 'GGA+U Structure Optimization'>, 'mp-1117942': <CalcType.GGA_U_DFPT_Dielectric: 'GGA+U DFPT Dielectric'>, 'mp-754568': <CalcType.GGA_Structure_Optimization: 'GGA Structure Optimization'>, 'mp-828059': <CalcType.GGA_Static: 'GGA Static'>, 'mp-830604': <CalcType.GGA_NSCF_Line: 'GGA NSCF Line'>, 'mp-1368286': <CalcType.GGA_U_Static: 'GGA+U Static'>, 'mp-1579790': <CalcType.GGA_U_Structure_Optimization: 'GGA+U Structure Optimization'>, 'mp-1652125': <CalcType.GGA_U_Static: 'GGA+U Static'>, 'mp-1651782': <CalcType.GGA_U_Structure_Optimization: 'GGA+U Structure Optimization'>, 'mp-1650558': <CalcType.GGA_U_Static: 'GGA+U Static'>, 'mp-1650938': <CalcType.GGA_U_Structure_Optimization: 'GGA+U Structure Optimization'>, 'mp-1660938': <CalcType.GGA_U_Static: 'GGA+U Static'>, 'mp-1811543': <CalcType.GGA_U_Static: 'GGA+U Static'>, 'mp-831632': <CalcType.GGA_NSCF_Line: 'GGA NSCF Line'>, 'mp-811418': <CalcType.GGA_U_NSCF_Line: 'GGA+U NSCF Line'>}"
mp-756728,Li6 V1 Cr1 P2 C2 O14,2.0814,"{'mp-809607': <CalcType.GGA_U_NSCF_Line: 'GGA+U NSCF Line'>, 'mp-767288': <CalcType.GGA_U_Structure_Optimization: 'GGA+U Structure Optimization'>, 'mp-802289': <CalcType.GGA_U_Static: 'GGA+U Static'>, 'mp-1118237': <CalcType.GGA_U_DFPT_Dielectric: 'GGA+U DFPT Dielectric'>, 'mp-756728': <CalcType.GGA_Structure_Optimization: 'GGA Structure Optimization'>, 'mp-884101': <CalcType.GGA_Static: 'GGA Static'>, 'mp-1345178': <CalcType.GGA_U_Static: 'GGA+U Static'>, 'mp-1653538': <CalcType.GGA_U_Structure_Optimization: 'GGA+U Structure Optimization'>, 'mp-1653742': <CalcType.GGA_U_Structure_Optimization: 'GGA+U Structure Optimization'>, 'mp-1651990': <CalcType.GGA_U_Structure_Optimization: 'GGA+U Structure Optimization'>, 'mp-1929423': <CalcType.GGA_U_Static: 'GGA+U Static'>, 'mp-809846': <CalcType.GGA_U_NSCF_Line: 'GGA+U NSCF Line'>}"
mp-757109,Li12 V2 Co2 P4 C4 O28,0.907799999999999,"{'mp-767294': <CalcType.GGA_U_Structure_Optimization: 'GGA+U Structure Optimization'>, 'mp-802299': <CalcType.GGA_U_Static: 'GGA+U Static'>, 'mp-809618': <CalcType.GGA_U_NSCF_Line: 'GGA+U NSCF Line'>, 'mp-757109': <CalcType.GGA_Structure_Optimization: 'GGA Structure Optimization'>, 'mp-884111': <CalcType.GGA_Static: 'GGA Static'>, 'mp-1347858': <CalcType.GGA_U_Static: 'GGA+U Static'>, 'mp-1652767': <CalcType.GGA_U_Structure_Optimization: 'GGA+U Structure Optimization'>, 'mp-1651359': <CalcType.GGA_U_Static: 'GGA+U Static'>, 'mp-1651895': <CalcType.GGA_U_Structure_Optimization: 'GGA+U Structure Optimization'>, 'mp-1650308': <CalcType.GGA_U_Static: 'GGA+U Static'>, 'mp-1650134': <CalcType.GGA_U_Structure_Optimization: 'GGA+U Structure Optimization'>, 'mp-1652794': <CalcType.GGA_U_Static: 'GGA+U Static'>, 'mp-1650493': <CalcType.GGA_U_Structure_Optimization: 'GGA+U Structure Optimization'>, 'mp-1651571': <CalcType.GGA_U_Static: 'GGA+U Static'>, 'mp-1651241': <CalcType.GGA_U_Static: 'GGA+U Static'>, 'mp-1650742': <CalcType.GGA_U_Structure_Optimization: 'GGA+U Structure Optimization'>, 'mp-1651644': <CalcType.GGA_U_Structure_Optimization: 'GGA+U Structure Optimization'>, 'mp-1666818': <CalcType.GGA_U_Structure_Optimization: 'GGA+U Structure Optimization'>, 'mp-1667735': <CalcType.GGA_U_Structure_Optimization: 'GGA+U Structure Optimization'>, 'mp-1667658': <CalcType.GGA_U_Static: 'GGA+U Static'>, 'mp-1666996': <CalcType.GGA_U_Structure_Optimization: 'GGA+U Structure Optimization'>, 'mp-1666357': <CalcType.GGA_U_Static: 'GGA+U Static'>, 'mp-809851': <CalcType.GGA_U_NSCF_Line: 'GGA+U NSCF Line'>, 'mp-1981136': <CalcType.GGA_U_Static: 'GGA+U Static'>, 'mp-1980889': <CalcType.GGA_U_Static: 'GGA+U Static'>, 'mp-1983015': <CalcType.GGA_U_Static: 'GGA+U Static'>, 'mp-1985353': <CalcType.GGA_U_Static: 'GGA+U Static'>, 'mp-1983510': <CalcType.GGA_U_Static: 'GGA+U Static'>, 'mp-1986528': <CalcType.GGA_U_Static: 'GGA+U Static'>, 'mp-1982600': <CalcType.GGA_U_Static: 'GGA+U Static'>, 'mp-1987770': <CalcType.GGA_U_Static: 'GGA+U Static'>}"
mp-757130,Li12 Cr2 Co2 P4 C4 O28,1.3096,"{'mp-809672': <CalcType.GGA_U_NSCF_Line: 'GGA+U NSCF Line'>, 'mp-767353': <CalcType.GGA_U_Structure_Optimization: 'GGA+U Structure Optimization'>, 'mp-802347': <CalcType.GGA_U_Static: 'GGA+U Static'>, 'mp-1118330': <CalcType.GGA_U_DFPT_Dielectric: 'GGA+U DFPT Dielectric'>, 'mp-757130': <CalcType.GGA_Structure_Optimization: 'GGA Structure Optimization'>, 'mp-884227': <CalcType.GGA_Static: 'GGA Static'>, 'mp-1330631': <CalcType.GGA_U_Static: 'GGA+U Static'>, 'mp-1666296': <CalcType.GGA_U_Structure_Optimization: 'GGA+U Structure Optimization'>, 'mp-809909': <CalcType.GGA_U_NSCF_Line: 'GGA+U NSCF Line'>, 'mp-1984339': <CalcType.GGA_U_Static: 'GGA+U Static'>}"
mp-757146,Li12 Mn2 Fe2 P4 C4 O28,3.9017,"{'mp-767285': <CalcType.GGA_U_Structure_Optimization: 'GGA+U Structure Optimization'>, 'mp-802283': <CalcType.GGA_U_Static: 'GGA+U Static'>, 'mp-809604': <CalcType.GGA_U_NSCF_Line: 'GGA+U NSCF Line'>, 'mp-1117966': <CalcType.GGA_U_DFPT_Dielectric: 'GGA+U DFPT Dielectric'>, 'mp-757146': <CalcType.GGA_Structure_Optimization: 'GGA Structure Optimization'>, 'mp-1345586': <CalcType.GGA_U_Static: 'GGA+U Static'>, 'mp-1580018': <CalcType.GGA_U_Structure_Optimization: 'GGA+U Structure Optimization'>, 'mp-1576582': <CalcType.GGA_U_Structure_Optimization: 'GGA+U Structure Optimization'>, 'mp-1648145': <CalcType.GGA_U_Static: 'GGA+U Static'>, 'mp-1652850': <CalcType.GGA_U_Static: 'GGA+U Static'>, 'mp-1653217': <CalcType.GGA_U_Structure_Optimization: 'GGA+U Structure Optimization'>, 'mp-1644289': <CalcType.GGA_U_Static: 'GGA+U Static'>, 'mp-1666720': <CalcType.GGA_U_Structure_Optimization: 'GGA+U Structure Optimization'>, 'mp-1666971': <CalcType.GGA_U_Structure_Optimization: 'GGA+U Structure Optimization'>, 'mp-1667481': <CalcType.GGA_U_Static: 'GGA+U Static'>, 'mp-1667660': <CalcType.GGA_U_Static: 'GGA+U Static'>, 'mp-1667749': <CalcType.GGA_U_Static: 'GGA+U Static'>, 'mp-1666345': <CalcType.GGA_U_Static: 'GGA+U Static'>, 'mp-1666772': <CalcType.GGA_U_Structure_Optimization: 'GGA+U Structure Optimization'>, 'mp-1883204': <CalcType.GGA_U_Static: 'GGA+U Static'>, 'mp-809850': <CalcType.GGA_U_NSCF_Line: 'GGA+U NSCF Line'>}"
mp-757178,Li12 Mn2 Co2 P4 C4 O28,2.118,"{'mp-767318': <CalcType.GGA_U_Structure_Optimization: 'GGA+U Structure Optimization'>, 'mp-802295': <CalcType.GGA_U_Static: 'GGA+U Static'>, 'mp-809635': <CalcType.GGA_U_NSCF_Line: 'GGA+U NSCF Line'>, 'mp-757178': <CalcType.GGA_Structure_Optimization: 'GGA Structure Optimization'>, 'mp-884158': <CalcType.GGA_Static: 'GGA Static'>, 'mp-1346975': <CalcType.GGA_U_Static: 'GGA+U Static'>, 'mp-1577254': <CalcType.GGA_U_Structure_Optimization: 'GGA+U Structure Optimization'>, 'mp-1652065': <CalcType.GGA_U_Static: 'GGA+U Static'>, 'mp-1650179': <CalcType.GGA_U_Structure_Optimization: 'GGA+U Structure Optimization'>, 'mp-1651104': <CalcType.GGA_U_Static: 'GGA+U Static'>, 'mp-1667385': <CalcType.GGA_U_Static: 'GGA+U Static'>, 'mp-1667386': <CalcType.GGA_U_Structure_Optimization: 'GGA+U Structure Optimization'>, 'mp-1666309': <CalcType.GGA_U_Structure_Optimization: 'GGA+U Structure Optimization'>, 'mp-1883258': <CalcType.GGA_U_Static: 'GGA+U Static'>, 'mp-809847': <CalcType.GGA_U_NSCF_Line: 'GGA+U NSCF Line'>}"
mp-757236,Li6 Mn1 Ni1 P2 C2 O14,2.8522,"{'mp-802287': <CalcType.GGA_U_Static: 'GGA+U Static'>, 'mp-809619': <CalcType.GGA_U_NSCF_Line: 'GGA+U NSCF Line'>, 'mp-767293': <CalcType.GGA_U_Structure_Optimization: 'GGA+U Structure Optimization'>, 'mp-757236': <CalcType.GGA_Structure_Optimization: 'GGA Structure Optimization'>, 'mp-884112': <CalcType.GGA_Static: 'GGA Static'>, 'mp-1347398': <CalcType.GGA_U_Static: 'GGA+U Static'>, 'mp-1575676': <CalcType.GGA_U_Structure_Optimization: 'GGA+U Structure Optimization'>, 'mp-1650207': <CalcType.GGA_U_Static: 'GGA+U Static'>, 'mp-809855': <CalcType.GGA_U_NSCF_Line: 'GGA+U NSCF Line'>}"
mp-757267,Li6 Cr1 Ni1 P2 C2 O14,1.860899999999999,"{'mp-767290': <CalcType.GGA_U_Structure_Optimization: 'GGA+U Structure Optimization'>, 'mp-802296': <CalcType.GGA_U_Static: 'GGA+U Static'>, 'mp-809610': <CalcType.GGA_U_NSCF_Line: 'GGA+U NSCF Line'>, 'mp-757267': <CalcType.GGA_Structure_Optimization: 'GGA Structure Optimization'>, 'mp-884122': <CalcType.GGA_Static: 'GGA Static'>, 'mp-1341984': <CalcType.GGA_U_Static: 'GGA+U Static'>, 'mp-1769059': <CalcType.GGA_U_Static: 'GGA+U Static'>, 'mp-809852': <CalcType.GGA_U_NSCF_Line: 'GGA+U NSCF Line'>}"
mp-768847,Na10 Li2 Ni4 P4 C4 O28,3.9515000000000002,"{'mp-770324': <CalcType.GGA_U_Structure_Optimization: 'GGA+U Structure Optimization'>, 'mp-803212': <CalcType.GGA_U_Static: 'GGA+U Static'>, 'mp-811272': <CalcType.GGA_U_NSCF_Line: 'GGA+U NSCF Line'>, 'mp-768847': <CalcType.GGA_Structure_Optimization: 'GGA Structure Optimization'>, 'mp-828408': <CalcType.GGA_Static: 'GGA Static'>, 'mp-831942': <CalcType.GGA_NSCF_Line: 'GGA NSCF Line'>, 'mp-1366730': <CalcType.GGA_U_Static: 'GGA+U Static'>, 'mp-1653124': <CalcType.GGA_U_Structure_Optimization: 'GGA+U Structure Optimization'>, 'mp-1654020': <CalcType.GGA_U_Static: 'GGA+U Static'>, 'mp-1652608': <CalcType.GGA_U_Static: 'GGA+U Static'>, 'mp-1651371': <CalcType.GGA_U_Structure_Optimization: 'GGA+U Structure Optimization'>, 'mp-1652798': <CalcType.GGA_U_Structure_Optimization: 'GGA+U Structure Optimization'>, 'mp-1654221': <CalcType.GGA_U_Static: 'GGA+U Static'>, 'mp-1653874': <CalcType.GGA_U_Structure_Optimization: 'GGA+U Structure Optimization'>, 'mp-1653883': <CalcType.GGA_U_Structure_Optimization: 'GGA+U Structure Optimization'>, 'mp-1652300': <CalcType.GGA_U_Structure_Optimization: 'GGA+U Structure Optimization'>, 'mp-1650360': <CalcType.GGA_U_Structure_Optimization: 'GGA+U Structure Optimization'>, 'mp-1652653': <CalcType.GGA_U_Static: 'GGA+U Static'>, 'mp-1652666': <CalcType.GGA_U_Static: 'GGA+U Static'>, 'mp-1653943': <CalcType.GGA_U_Static: 'GGA+U Static'>, 'mp-1653410': <CalcType.GGA_U_Static: 'GGA+U Static'>, 'mp-1651302': <CalcType.GGA_U_Structure_Optimization: 'GGA+U Structure Optimization'>, 'mp-1660796': <CalcType.GGA_U_Structure_Optimization: 'GGA+U Structure Optimization'>, 'mp-1667390': <CalcType.GGA_U_Structure_Optimization: 'GGA+U Structure Optimization'>, 'mp-1667557': <CalcType.GGA_U_Structure_Optimization: 'GGA+U Structure Optimization'>, 'mp-1667738': <CalcType.GGA_U_Structure_Optimization: 'GGA+U Structure Optimization'>, 'mp-1667419': <CalcType.GGA_U_Static: 'GGA+U Static'>, 'mp-1666683': <CalcType.GGA_U_Structure_Optimization: 'GGA+U Structure Optimization'>, 'mp-1667361': <CalcType.GGA_U_Static: 'GGA+U Static'>, 'mp-1937378': <CalcType.GGA_U_Static: 'GGA+U Static'>, 'mp-832382': <CalcType.GGA_NSCF_Line: 'GGA NSCF Line'>, 'mp-812060': <CalcType.GGA_U_NSCF_Line: 'GGA+U NSCF Line'>}"
mp-1101478,Na2 Li10 Fe4 P4 C4 O28,3.6574,"{'mp-1101478': <CalcType.GGA_U_Structure_Optimization: 'GGA+U Structure Optimization'>, 'mp-1349972': <CalcType.GGA_U_Static: 'GGA+U Static'>, 'mp-1680717': <CalcType.GGA_U_NSCF_Uniform: 'GGA+U NSCF Uniform'>, 'mp-1935733': <CalcType.GGA_U_Static: 'GGA+U Static'>}"
mp-1229335,Al2 H32 C4 S4 N2 O28,3.1825,"{'mp-1229335': <CalcType.GGA_Structure_Optimization: 'GGA Structure Optimization'>, 'mp-1888724': <CalcType.GGA_Static: 'GGA Static'>}"