Material ID,Composition,Band Gap,Calc Types
mp-708992,Al2 H40 C4 S4 N2 O28,5.6231,"{'mp-738694': <CalcType.GGA_Structure_Optimization: 'GGA Structure Optimization'>, 'mp-708992': <CalcType.GGA_Structure_Optimization: 'GGA Structure Optimization'>, 'mp-864187': <CalcType.GGA_NSCF_Line: 'GGA NSCF Line'>, 'mp-729762': <CalcType.GGA_Static: 'GGA Static'>, 'mp-1260727': <CalcType.GGA_Structure_Optimization: 'GGA Structure Optimization'>, 'mp-1262861': <CalcType.GGA_NMR_Nuclear_Shielding: 'GGA NMR Nuclear Shielding'>, 'mp-1266376': <CalcType.GGA_NMR_Electric_Field_Gradient: 'GGA NMR Electric Field Gradient'>, 'mp-1351093': <CalcType.GGA_Static: 'GGA Static'>, 'mp-1684822': <CalcType.GGA_NSCF_Uniform: 'GGA NSCF Uniform'>, 'mp-1936573': <CalcType.GGA_Static: 'GGA Static'>, 'mp-737547': <CalcType.GGA_NSCF_Line: 'GGA NSCF Line'>, 'mp-864478': <CalcType.GGA_NSCF_Line: 'GGA NSCF Line'>}"
mp-772311,Na10 Li2 Mn4 P4 C4 O28,3.5395,"{'mp-813179': <CalcType.GGA_U_NSCF_Line: 'GGA+U NSCF Line'>, 'mp-773420': <CalcType.GGA_U_Structure_Optimization: 'GGA+U Structure Optimization'>, 'mp-804278': <CalcType.GGA_U_Static: 'GGA+U Static'>, 'mp-772311': <CalcType.GGA_Structure_Optimization: 'GGA Structure Optimization'>, 'mp-832641': <CalcType.GGA_NSCF_Line: 'GGA NSCF Line'>, 'mp-828800': <CalcType.GGA_Static: 'GGA Static'>, 'mp-1352721': <CalcType.GGA_U_Static: 'GGA+U Static'>, 'mp-1772933': <CalcType.GGA_U_Static: 'GGA+U Static'>, 'mp-1887310': <CalcType.GGA_U_Static: 'GGA+U Static'>, 'mp-833430': <CalcType.GGA_NSCF_Line: 'GGA NSCF Line'>, 'mp-813971': <CalcType.GGA_U_NSCF_Line: 'GGA+U NSCF Line'>}"
mp-554951,Ga2 H40 C4 S4 N2 O28,5.1196,"{'mp-656156': <CalcType.GGA_NSCF_Line: 'GGA NSCF Line'>, 'mp-659383': <CalcType.GGA_NSCF_Line: 'GGA NSCF Line'>, 'mp-654851': <CalcType.GGA_Static: 'GGA Static'>, 'mp-554951': <CalcType.GGA_Structure_Optimization: 'GGA Structure Optimization'>, 'mp-1181368': <CalcType.GGA_Structure_Optimization: 'GGA Structure Optimization'>, 'mp-1351273': <CalcType.GGA_Static: 'GGA Static'>, 'mp-1681408': <CalcType.GGA_NSCF_Uniform: 'GGA NSCF Uniform'>, 'mp-1897633': <CalcType.GGA_Static: 'GGA Static'>}"
mp-772294,Na10 Li2 Fe4 P4 C4 O28,3.751399999999999,"{'mp-773523': <CalcType.GGA_U_Structure_Optimization: 'GGA+U Structure Optimization'>, 'mp-804348': <CalcType.GGA_U_Static: 'GGA+U Static'>, 'mp-813231': <CalcType.GGA_U_NSCF_Line: 'GGA+U NSCF Line'>, 'mp-772294': <CalcType.GGA_Structure_Optimization: 'GGA Structure Optimization'>, 'mp-1351229': <CalcType.GGA_U_Static: 'GGA+U Static'>, 'mp-1901557': <CalcType.GGA_U_Static: 'GGA+U Static'>, 'mp-813990': <CalcType.GGA_U_NSCF_Line: 'GGA+U NSCF Line'>}"
mp-772444,Na2 Li10 Mn4 P4 C4 O28,3.575499999999999,"{'mp-773634': <CalcType.GGA_U_Structure_Optimization: 'GGA+U Structure Optimization'>, 'mp-804353': <CalcType.GGA_U_Static: 'GGA+U Static'>, 'mp-813235': <CalcType.GGA_U_NSCF_Line: 'GGA+U NSCF Line'>, 'mp-772444': <CalcType.GGA_Structure_Optimization: 'GGA Structure Optimization'>, 'mp-832685': <CalcType.GGA_NSCF_Line: 'GGA NSCF Line'>, 'mp-1352445': <CalcType.GGA_U_Static: 'GGA+U Static'>, 'mp-1684648': <CalcType.GGA_U_NSCF_Uniform: 'GGA+U NSCF Uniform'>, 'mp-1890021': <CalcType.GGA_U_Static: 'GGA+U Static'>, 'mp-813995': <CalcType.GGA_U_NSCF_Line: 'GGA+U NSCF Line'>, 'mp-833471': <CalcType.GGA_NSCF_Line: 'GGA NSCF Line'>}"
mp-1229242,Al2 H32 C4 S4 N2 O28,2.1005,"{'mp-1229242': <CalcType.GGA_Structure_Optimization: 'GGA Structure Optimization'>, 'mp-1238484': <CalcType.GGA_Structure_Optimization: 'GGA Structure Optimization'>, 'mp-1363161': <CalcType.GGA_Static: 'GGA Static'>, 'mp-1889561': <CalcType.GGA_Static: 'GGA Static'>, 'mp-1637590': <CalcType.GGA_NSCF_Line: 'GGA NSCF Line'>}"
mp-1233466,Ba1 Mg1 Al3 P2 H2 O14,0.0,"{'mp-1233466': <CalcType.GGA_Static: 'GGA Static'>, 'mp-1234879': <CalcType.GGA_Structure_Optimization: 'GGA Structure Optimization'>}"
mp-1233007,Ba1 Li1 Al3 P2 H2 O14,3.133999999999999,"{'mp-1233007': <CalcType.GGA_Static: 'GGA Static'>, 'mp-1235747': <CalcType.GGA_Structure_Optimization: 'GGA Structure Optimization'>}"
mp-1233091,Ba1 Mg1 Al3 P2 H2 O14,0.0,"{'mp-1233091': <CalcType.GGA_Static: 'GGA Static'>, 'mp-1233318': <CalcType.GGA_Structure_Optimization: 'GGA Structure Optimization'>}"
mp-1233113,Ba1 Ca1 Al3 P2 H2 O14,0.117299999999999,"{'mp-1233113': <CalcType.GGA_Static: 'GGA Static'>, 'mp-1233118': <CalcType.GGA_Structure_Optimization: 'GGA Structure Optimization'>, 'mp-2912321': <CalcType.r2SCAN_Structure_Optimization: 'r2SCAN Structure Optimization'>}"
mp-1235256,Ba1 Li1 Al3 P2 H2 O14,2.648399999999999,"{'mp-1235256': <CalcType.GGA_Static: 'GGA Static'>, 'mp-1235703': <CalcType.GGA_Structure_Optimization: 'GGA Structure Optimization'>, 'mp-1235725': <CalcType.GGA_Static: 'GGA Static'>, 'mp-1236500': <CalcType.GGA_Structure_Optimization: 'GGA Structure Optimization'>}"
mp-1233827,Ba1 Mg1 Al3 P2 H2 O14,0.029799999999999,"{'mp-1233827': <CalcType.GGA_Structure_Optimization: 'GGA Structure Optimization'>, 'mp-1233891': <CalcType.GGA_Static: 'GGA Static'>}"
mp-1236170,Ba1 Li1 Al3 P2 H2 O14,1.9554,"{'mp-1236170': <CalcType.GGA_Structure_Optimization: 'GGA Structure Optimization'>, 'mp-1236220': <CalcType.GGA_Static: 'GGA Static'>}"
mp-1574878,Na10 Li2 Co4 P4 C4 O28,0.049,"{'mp-1574878': <CalcType.GGA_U_Structure_Optimization: 'GGA+U Structure Optimization'>, 'mp-1651173': <CalcType.GGA_U_Static: 'GGA+U Static'>, 'mp-1666873': <CalcType.GGA_U_Structure_Optimization: 'GGA+U Structure Optimization'>, 'mp-1666489': <CalcType.GGA_U_Structure_Optimization: 'GGA+U Structure Optimization'>}"
mp-699455,Al6 P6 H18 C6 N2 O28,4.978899999999999,"{'mp-731802': <CalcType.GGA_Static: 'GGA Static'>, 'mp-699455': <CalcType.GGA_Structure_Optimization: 'GGA Structure Optimization'>, 'mp-844116': <CalcType.GGA_NSCF_Line: 'GGA NSCF Line'>, 'mp-766041': <CalcType.GGA_Structure_Optimization: 'GGA Structure Optimization'>, 'mp-1254797': <CalcType.GGA_NMR_Nuclear_Shielding: 'GGA NMR Nuclear Shielding'>, 'mp-1256661': <CalcType.GGA_NMR_Electric_Field_Gradient: 'GGA NMR Electric Field Gradient'>, 'mp-1261499': <CalcType.GGA_Structure_Optimization: 'GGA Structure Optimization'>, 'mp-1380654': <CalcType.GGA_Static: 'GGA Static'>, 'mp-1893967': <CalcType.GGA_Static: 'GGA Static'>, 'mp-750274': <CalcType.GGA_NSCF_Line: 'GGA NSCF Line'>, 'mp-844798': <CalcType.GGA_NSCF_Line: 'GGA NSCF Line'>}"
mp-1228757,Ba2 Ca1 Eu2 Ti3 Cu2 O14,0.0,"{'mp-1228757': <CalcType.GGA_Structure_Optimization: 'GGA Structure Optimization'>, 'mp-1376421': <CalcType.GGA_Static: 'GGA Static'>, 'mp-1679925': <CalcType.GGA_NSCF_Uniform: 'GGA NSCF Uniform'>, 'mp-1810813': <CalcType.GGA_Static: 'GGA Static'>}"
mp-1228548,Ba2 Ca1 Tb2 Ti3 Cu2 O14,0.0,"{'mp-1228548': <CalcType.GGA_Structure_Optimization: 'GGA Structure Optimization'>, 'mp-1373004': <CalcType.GGA_Static: 'GGA Static'>, 'mp-1814030': <CalcType.GGA_Static: 'GGA Static'>}"
mp-1223325,Li2 Ni2 H24 C6 N12 O15,4.2989,"{'mp-1223325': <CalcType.GGA_U_Structure_Optimization: 'GGA+U Structure Optimization'>, 'mp-1883679': <CalcType.GGA_U_Static: 'GGA+U Static'>}"
mp-1223381,Li2 Co2 H24 C6 N12 O15,1.267999999999999,"{'mp-1223381': <CalcType.GGA_U_Structure_Optimization: 'GGA+U Structure Optimization'>, 'mp-1892471': <CalcType.GGA_U_Static: 'GGA+U Static'>}"
mp-1226362,Cu6 Te2 Mo2 H2 Cl4 O15,0.0,"{'mp-1226362': <CalcType.GGA_U_Structure_Optimization: 'GGA+U Structure Optimization'>, 'mp-1238607': <CalcType.GGA_U_Structure_Optimization: 'GGA+U Structure Optimization'>, 'mp-1354273': <CalcType.GGA_U_Static: 'GGA+U Static'>, 'mp-1655755': <CalcType.GGA_U_Static: 'GGA+U Static'>, 'mp-1825589': <CalcType.GGA_U_Static: 'GGA+U Static'>, 'mp-1683455': <CalcType.GGA_U_NSCF_Uniform: 'GGA+U NSCF Uniform'>}"
mp-704755,Fe12 P4 W4 C60 Br4 O60,0.25320000000000004,"{'mp-839413': <CalcType.GGA_NSCF_Line: 'GGA NSCF Line'>, 'mp-838585': <CalcType.GGA_Static: 'GGA Static'>, 'mp-1332073': <CalcType.GGA_U_Static: 'GGA+U Static'>, 'mp-704755': <CalcType.GGA_U_Structure_Optimization: 'GGA+U Structure Optimization'>, 'mp-817651': <CalcType.GGA_U_Static: 'GGA+U Static'>, 'mp-731516': <CalcType.GGA_Static: 'GGA Static'>, 'mp-840431': <CalcType.GGA_NSCF_Line: 'GGA NSCF Line'>}"
mp-559113,Sc2 H48 C6 S6 N18 O30,4.3698,"{'mp-665540': <CalcType.GGA_NSCF_Line: 'GGA NSCF Line'>, 'mp-680799': <CalcType.GGA_NSCF_Line: 'GGA NSCF Line'>, 'mp-657824': <CalcType.GGA_Static: 'GGA Static'>, 'mp-559113': <CalcType.GGA_Structure_Optimization: 'GGA Structure Optimization'>, 'mp-1364152': <CalcType.GGA_Static: 'GGA Static'>}"
mp-1205264,Na28 Mn20 P12 H24 O60 F52,1.2885,{'mp-1205264': <CalcType.GGA_U_Structure_Optimization: 'GGA+U Structure Optimization'>}
mp-1215051,Ba4 H28 C24 S8 N8 O30,2.643799999999999,"{'mp-1215051': <CalcType.GGA_Structure_Optimization: 'GGA Structure Optimization'>, 'mp-1846078': <CalcType.GGA_Static: 'GGA Static'>}"
mp-707467,Th4 H80 C16 S8 N32 O60,0.28190000000000004,{'mp-707467': <CalcType.GGA_Structure_Optimization: 'GGA Structure Optimization'>}
mp-1253229,Na6 Ca2 Al6 Si6 C2 O30,1.8002,"{'mp-1251784': <CalcType.GGA_NMR_Nuclear_Shielding: 'GGA NMR Nuclear Shielding'>, 'mp-1253229': <CalcType.GGA_Structure_Optimization: 'GGA Structure Optimization'>, 'mp-1255287': <CalcType.GGA_NMR_Electric_Field_Gradient: 'GGA NMR Electric Field Gradient'>, 'mp-1255638': <CalcType.GGA_NMR_Electric_Field_Gradient: 'GGA NMR Electric Field Gradient'>, 'mp-1258595': <CalcType.GGA_NMR_Nuclear_Shielding: 'GGA NMR Nuclear Shielding'>, 'mp-1266206': <CalcType.GGA_Structure_Optimization: 'GGA Structure Optimization'>, 'mp-1911922': <CalcType.GGA_Static: 'GGA Static'>}"
mp-705635,Na6 Ca2 Al6 Si6 C2 O30,1.1483,"{'mp-948877': <CalcType.GGA_NSCF_Line: 'GGA NSCF Line'>, 'mp-938693': <CalcType.GGA_Static: 'GGA Static'>, 'mp-949392': <CalcType.GGA_NSCF_Line: 'GGA NSCF Line'>, 'mp-705635': <CalcType.GGA_Structure_Optimization: 'GGA Structure Optimization'>, 'mp-1173692': <CalcType.GGA_Structure_Optimization: 'GGA Structure Optimization'>, 'mp-1332234': <CalcType.GGA_Static: 'GGA Static'>, 'mp-1870375': <CalcType.GGA_Static: 'GGA Static'>}"
mp-1195048,Na2 Ca2 Mn6 Si10 H2 O30,3.1151,"{'mp-1195048': <CalcType.GGA_U_Structure_Optimization: 'GGA+U Structure Optimization'>, 'mp-1886646': <CalcType.GGA_U_Static: 'GGA+U Static'>, 'mp-1985310': <CalcType.GGA_U_Static: 'GGA+U Static'>}"
mp-1197228,Ni2 P8 H36 C4 N4 O30,4.560899999999999,"{'mp-1197228': <CalcType.GGA_U_Structure_Optimization: 'GGA+U Structure Optimization'>, 'mp-1325519': <CalcType.GGA_U_Static: 'GGA+U Static'>, 'mp-1890117': <CalcType.GGA_U_Static: 'GGA+U Static'>}"
mp-1201982,K4 U2 H12 C8 Se2 O30,2.083,"{'mp-1201982': <CalcType.GGA_Structure_Optimization: 'GGA Structure Optimization'>, 'mp-1905889': <CalcType.GGA_Static: 'GGA Static'>, 'mp-1986004': <CalcType.GGA_Static: 'GGA Static'>}"
mp-1202461,Li2 Ca4 Mn4 Si10 H2 O30,3.4069000000000003,"{'mp-1202461': <CalcType.GGA_U_Structure_Optimization: 'GGA+U Structure Optimization'>, 'mp-1343042': <CalcType.GGA_U_Static: 'GGA+U Static'>, 'mp-1773131': <CalcType.GGA_U_Static: 'GGA+U Static'>, 'mp-1893369': <CalcType.GGA_U_Static: 'GGA+U Static'>, 'mp-2896567': <CalcType.r2SCAN_Structure_Optimization: 'r2SCAN Structure Optimization'>}"
mp-1227867,Ca4 Mn2 Fe2 Si8 H10 O30,1.7123,"{'mp-1227867': <CalcType.GGA_U_Structure_Optimization: 'GGA+U Structure Optimization'>, 'mp-1352266': <CalcType.GGA_U_Static: 'GGA+U Static'>, 'mp-1936036': <CalcType.GGA_U_Static: 'GGA+U Static'>}"
mp-1263007,Ca4 Mn2 Fe2 Si8 H10 O30,1.162599999999999,"{'mp-1253359': <CalcType.GGA_U_NMR_Nuclear_Shielding: 'GGA+U NMR Nuclear Shielding'>, 'mp-1255730': <CalcType.GGA_U_NMR_Electric_Field_Gradient: 'GGA+U NMR Electric Field Gradient'>, 'mp-1263007': <CalcType.GGA_U_Structure_Optimization: 'GGA+U Structure Optimization'>, 'mp-1894091': <CalcType.GGA_U_Static: 'GGA+U Static'>}"
mp-1248208,Na6 Ca6 Zr4 Si8 O30 F6,3.0164,"{'mp-1248097': <CalcType.GGA_NMR_Nuclear_Shielding: 'GGA NMR Nuclear Shielding'>, 'mp-1248208': <CalcType.GGA_Structure_Optimization: 'GGA Structure Optimization'>, 'mp-1263910': <CalcType.GGA_NMR_Electric_Field_Gradient: 'GGA NMR Electric Field Gradient'>, 'mp-1896230': <CalcType.GGA_Static: 'GGA Static'>}"
mp-603946,Ag2 Mo8 H44 C16 N6 O30,2.1547,"{'mp-818982': <CalcType.GGA_U_Static: 'GGA+U Static'>, 'mp-819907': <CalcType.GGA_U_NSCF_Line: 'GGA+U NSCF Line'>, 'mp-603983': <CalcType.GGA_U_Structure_Optimization: 'GGA+U Structure Optimization'>, 'mp-835080': <CalcType.GGA_NSCF_Line: 'GGA NSCF Line'>, 'mp-603946': <CalcType.GGA_Structure_Optimization: 'GGA Structure Optimization'>, 'mp-825512': <CalcType.GGA_Static: 'GGA Static'>, 'mp-1327813': <CalcType.GGA_U_Static: 'GGA+U Static'>, 'mp-1844539': <CalcType.GGA_U_Static: 'GGA+U Static'>, 'mp-820868': <CalcType.GGA_U_NSCF_Line: 'GGA+U NSCF Line'>, 'mp-835879': <CalcType.GGA_NSCF_Line: 'GGA NSCF Line'>}"
mp-705559,Na6 Ca6 Zr4 Si8 O30 F6,3.075699999999999,"{'mp-705559': <CalcType.GGA_Structure_Optimization: 'GGA Structure Optimization'>, 'mp-733344': <CalcType.GGA_NSCF_Line: 'GGA NSCF Line'>, 'mp-728766': <CalcType.GGA_Static: 'GGA Static'>, 'mp-1173716': <CalcType.GGA_Structure_Optimization: 'GGA Structure Optimization'>, 'mp-1324349': <CalcType.GGA_Static: 'GGA Static'>, 'mp-1870231': <CalcType.GGA_Static: 'GGA Static'>, 'mp-737797': <CalcType.GGA_NSCF_Line: 'GGA NSCF Line'>}"
mp-721172,Ca4 Mn2 Fe2 Si8 H10 O30,0.971299999999999,"{'mp-818246': <CalcType.GGA_U_Static: 'GGA+U Static'>, 'mp-735520': <CalcType.GGA_U_Structure_Optimization: 'GGA+U Structure Optimization'>, 'mp-824229': <CalcType.GGA_U_NSCF_Line: 'GGA+U NSCF Line'>, 'mp-721172': <CalcType.GGA_Structure_Optimization: 'GGA Structure Optimization'>, 'mp-1326988': <CalcType.GGA_U_Static: 'GGA+U Static'>, 'mp-1893223': <CalcType.GGA_U_Static: 'GGA+U Static'>, 'mp-825011': <CalcType.GGA_U_NSCF_Line: 'GGA+U NSCF Line'>}"
mp-727393,Ca4 Mn2 Al4 Si8 B2 O30,1.1151,"{'mp-1200446': <CalcType.GGA_U_Structure_Optimization: 'GGA+U Structure Optimization'>, 'mp-727393': <CalcType.GGA_Static: 'GGA Static'>, 'mp-824820': <CalcType.GGA_U_NSCF_Line: 'GGA+U NSCF Line'>, 'mp-818624': <CalcType.GGA_U_Static: 'GGA+U Static'>, 'mp-833700': <CalcType.GGA_Static: 'GGA Static'>, 'mp-840248': <CalcType.GGA_NSCF_Line: 'GGA NSCF Line'>, 'mp-1372394': <CalcType.GGA_U_Static: 'GGA+U Static'>, 'mp-1892016': <CalcType.GGA_U_Static: 'GGA+U Static'>, 'mp-841395': <CalcType.GGA_NSCF_Line: 'GGA NSCF Line'>, 'mp-825180': <CalcType.GGA_U_NSCF_Line: 'GGA+U NSCF Line'>}"
mp-1218732,Sr14 Cu4 Hg2 Bi2 Sb2 O30,0.0,"{'mp-1218732': <CalcType.GGA_Structure_Optimization: 'GGA Structure Optimization'>, 'mp-1325701': <CalcType.GGA_Static: 'GGA Static'>, 'mp-1920400': <CalcType.GGA_Static: 'GGA Static'>}"
mp-1198217,Zn12 H96 C16 Se20 N48 O60,4.267799999999999,{'mp-1198217': <CalcType.GGA_Structure_Optimization: 'GGA Structure Optimization'>}
mp-1205271,Na8 Cu4 P16 H72 N16 O60,1.120099999999999,"{'mp-1205271': <CalcType.GGA_Structure_Optimization: 'GGA Structure Optimization'>, 'mp-1334743': <CalcType.GGA_Static: 'GGA Static'>}"
mp-559586,Ba4 Na8 Nd8 Si16 C4 O60,4.8225999999999996,"{'mp-735370': <CalcType.GGA_NSCF_Line: 'GGA NSCF Line'>, 'mp-723224': <CalcType.GGA_Static: 'GGA Static'>, 'mp-559586': <CalcType.GGA_Structure_Optimization: 'GGA Structure Optimization'>, 'mp-1134246': <CalcType.GGA_Structure_Optimization: 'GGA Structure Optimization'>, 'mp-1256084': <CalcType.GGA_NMR_Electric_Field_Gradient: 'GGA NMR Electric Field Gradient'>, 'mp-1259097': <CalcType.GGA_Structure_Optimization: 'GGA Structure Optimization'>, 'mp-1365189': <CalcType.GGA_Static: 'GGA Static'>, 'mp-745055': <CalcType.GGA_NSCF_Line: 'GGA NSCF Line'>}"
mp-735553,V12 P8 H48 C12 N8 O60,0.0,"{'mp-735553': <CalcType.GGA_U_Structure_Optimization: 'GGA+U Structure Optimization'>, 'mp-818269': <CalcType.GGA_U_Static: 'GGA+U Static'>, 'mp-1336215': <CalcType.GGA_U_Static: 'GGA+U Static'>}"
mp-1199632,U4 H24 C4 S6 N4 O32,1.9032,"{'mp-1199632': <CalcType.GGA_Structure_Optimization: 'GGA Structure Optimization'>, 'mp-1348774': <CalcType.GGA_Static: 'GGA Static'>, 'mp-1682120': <CalcType.GGA_NSCF_Uniform: 'GGA NSCF Uniform'>, 'mp-1895288': <CalcType.GGA_Static: 'GGA Static'>}"
mp-1221464,Na2 Ca5 Ti1 Si4 O16 F2,0.0,"{'mp-1221464': <CalcType.GGA_Structure_Optimization: 'GGA Structure Optimization'>, 'mp-1375983': <CalcType.GGA_Static: 'GGA Static'>, 'mp-1814393': <CalcType.GGA_Static: 'GGA Static'>}"
mp-1210589,Na2 Ca5 Ti1 Si4 O16 F2,0.0,"{'mp-1210589': <CalcType.GGA_Structure_Optimization: 'GGA Structure Optimization'>, 'mp-1348029': <CalcType.GGA_Static: 'GGA Static'>, 'mp-1679100': <CalcType.GGA_NSCF_Uniform: 'GGA NSCF Uniform'>, 'mp-1822107': <CalcType.GGA_Static: 'GGA Static'>}"
mp-1221308,Na3 Ca1 Al3 Si3 S1 O16,4.575100000000001,"{'mp-1221308': <CalcType.GGA_Structure_Optimization: 'GGA Structure Optimization'>, 'mp-1837769': <CalcType.GGA_Static: 'GGA Static'>}"
mp-1233586,K2 Mg1 Fe4 P6 O16 F12,1.4242,{'mp-1233586': <CalcType.GGA_U_Structure_Optimization: 'GGA+U Structure Optimization'>}
mp-1233578,K2 Mg1 Zn4 P4 H2 O16,1.0193,{'mp-1233578': <CalcType.GGA_Structure_Optimization: 'GGA Structure Optimization'>}
mp-1233344,Sr2 Mg1 Zn2 Sn2 P4 O16,2.0226,{'mp-1233344': <CalcType.GGA_Structure_Optimization: 'GGA Structure Optimization'>}
mp-1228533,Ba2 Sr1 Ca3 Mg2 Si4 O16,4.8951,"{'mp-1228533': <CalcType.GGA_Structure_Optimization: 'GGA Structure Optimization'>, 'mp-1374381': <CalcType.GGA_Static: 'GGA Static'>, 'mp-1836621': <CalcType.GGA_Static: 'GGA Static'>}"
mp-1233085,Sr2 Mg1 Zn2 Sn2 P4 O16,2.3132,{'mp-1233085': <CalcType.GGA_Structure_Optimization: 'GGA Structure Optimization'>}
mp-1233121,Sr2 Mg1 Zn2 Sn2 P4 O16,1.5769000000000002,{'mp-1233121': <CalcType.GGA_Structure_Optimization: 'GGA Structure Optimization'>}
mp-1234180,Sr2 Mg1 Zn2 Sn2 P4 O16,1.277699999999999,{'mp-1234180': <CalcType.GGA_Structure_Optimization: 'GGA Structure Optimization'>}
mp-1233636,Sr2 Mg1 Zn2 Sn2 P4 O16,0.9339000000000001,{'mp-1233636': <CalcType.GGA_Structure_Optimization: 'GGA Structure Optimization'>}
mp-1234187,Sr2 Mg1 Zn2 Sn2 P4 O16,2.3422,{'mp-1234187': <CalcType.GGA_Structure_Optimization: 'GGA Structure Optimization'>}
mp-1233619,Sr2 Mg1 Zn2 Sn2 P4 O16,1.1384,{'mp-1233619': <CalcType.GGA_Structure_Optimization: 'GGA Structure Optimization'>}
mp-1233908,Sr2 Mg1 Zn2 Sn2 P4 O16,2.241299999999999,{'mp-1233908': <CalcType.GGA_Structure_Optimization: 'GGA Structure Optimization'>}
mp-1233950,K2 Mg1 Fe4 P6 O16 F12,1.717,{'mp-1233950': <CalcType.GGA_U_Structure_Optimization: 'GGA+U Structure Optimization'>}
mp-1233972,K2 Mg1 Fe4 P6 O16 F12,1.7002000000000002,{'mp-1233972': <CalcType.GGA_U_Structure_Optimization: 'GGA+U Structure Optimization'>}
mp-1234423,K2 Mg1 Fe4 P6 O16 F12,1.5839999999999992,{'mp-1234423': <CalcType.GGA_U_Structure_Optimization: 'GGA+U Structure Optimization'>}
mp-1234357,K2 Mg1 Fe4 P6 O16 F12,1.497599999999999,{'mp-1234357': <CalcType.GGA_U_Structure_Optimization: 'GGA+U Structure Optimization'>}
mp-1234362,K2 Mg1 Fe4 P6 O16 F12,1.5787,{'mp-1234362': <CalcType.GGA_U_Structure_Optimization: 'GGA+U Structure Optimization'>}
mp-1234647,K2 Mg1 Fe4 P6 O16 F12,1.6981000000000002,{'mp-1234647': <CalcType.GGA_U_Structure_Optimization: 'GGA+U Structure Optimization'>}
mp-1235002,Sr2 Mg1 Zn2 Sn2 P4 O16,2.1214,{'mp-1235002': <CalcType.GGA_Structure_Optimization: 'GGA Structure Optimization'>}
mp-1234508,K2 Mg1 Fe4 P6 O16 F12,1.561999999999999,{'mp-1234508': <CalcType.GGA_U_Structure_Optimization: 'GGA+U Structure Optimization'>}
mp-1234671,Sr2 Mg1 Zn2 Sn2 P4 O16,1.760799999999999,{'mp-1234671': <CalcType.GGA_Structure_Optimization: 'GGA Structure Optimization'>}
mp-1252733,Na6 Ca2 Al6 Si6 S2 O32,4.1166,"{'mp-1252450': <CalcType.GGA_NMR_Nuclear_Shielding: 'GGA NMR Nuclear Shielding'>, 'mp-1252529': <CalcType.GGA_NMR_Electric_Field_Gradient: 'GGA NMR Electric Field Gradient'>, 'mp-1252733': <CalcType.GGA_Structure_Optimization: 'GGA Structure Optimization'>, 'mp-1880586': <CalcType.GGA_Static: 'GGA Static'>}"