Material ID,Composition,Band Gap,Calc Types
mp-1190639,Cs2 K4 Fe6 P8 Cl2 O28,3.7684,"{'mp-1190639': <CalcType.GGA_U_Structure_Optimization: 'GGA+U Structure Optimization'>, 'mp-1289259': <CalcType.GGA_U_Structure_Optimization: 'GGA+U Structure Optimization'>, 'mp-1280680': <CalcType.GGA_U_Static: 'GGA+U Static'>, 'mp-1284688': <CalcType.GGA_U_Static: 'GGA+U Static'>, 'mp-1302685': <CalcType.GGA_U_Structure_Optimization: 'GGA+U Structure Optimization'>, 'mp-1321377': <CalcType.GGA_U_Structure_Optimization: 'GGA+U Structure Optimization'>, 'mp-1313180': <CalcType.GGA_U_Static: 'GGA+U Static'>, 'mp-1307236': <CalcType.GGA_U_Structure_Optimization: 'GGA+U Structure Optimization'>, 'mp-1310986': <CalcType.GGA_U_Structure_Optimization: 'GGA+U Structure Optimization'>, 'mp-1319235': <CalcType.GGA_U_Static: 'GGA+U Static'>, 'mp-1317786': <CalcType.GGA_U_Static: 'GGA+U Static'>, 'mp-1311104': <CalcType.GGA_U_Static: 'GGA+U Static'>, 'mp-1315673': <CalcType.GGA_U_Structure_Optimization: 'GGA+U Structure Optimization'>, 'mp-1322439': <CalcType.GGA_U_Structure_Optimization: 'GGA+U Structure Optimization'>, 'mp-1320207': <CalcType.GGA_U_Structure_Optimization: 'GGA+U Structure Optimization'>, 'mp-1302386': <CalcType.GGA_U_Static: 'GGA+U Static'>, 'mp-1308356': <CalcType.GGA_U_Structure_Optimization: 'GGA+U Structure Optimization'>, 'mp-1313598': <CalcType.GGA_U_Structure_Optimization: 'GGA+U Structure Optimization'>, 'mp-1314351': <CalcType.GGA_U_Structure_Optimization: 'GGA+U Structure Optimization'>, 'mp-1307669': <CalcType.GGA_U_Static: 'GGA+U Static'>, 'mp-1307680': <CalcType.GGA_U_Static: 'GGA+U Static'>, 'mp-1312162': <CalcType.GGA_U_Static: 'GGA+U Static'>, 'mp-1315183': <CalcType.GGA_U_Static: 'GGA+U Static'>, 'mp-1307730': <CalcType.GGA_U_Static: 'GGA+U Static'>, 'mp-1301760': <CalcType.GGA_U_Static: 'GGA+U Static'>, 'mp-1315937': <CalcType.GGA_U_Structure_Optimization: 'GGA+U Structure Optimization'>, 'mp-1301770': <CalcType.GGA_U_Static: 'GGA+U Static'>, 'mp-1305528': <CalcType.GGA_U_Structure_Optimization: 'GGA+U Structure Optimization'>, 'mp-1362971': <CalcType.GGA_U_Structure_Optimization: 'GGA+U Structure Optimization'>, 'mp-1410981': <CalcType.GGA_U_Static: 'GGA+U Static'>, 'mp-1767890': <CalcType.GGA_U_NSCF_Uniform: 'GGA+U NSCF Uniform'>, 'mp-1612114': <CalcType.GGA_U_NSCF_Line: 'GGA+U NSCF Line'>, 'mp-2173912': <CalcType.GGA_U_NSCF_Line: 'GGA+U NSCF Line'>, 'mp-2690668': <CalcType.GGA_U_NSCF_Line: 'GGA+U NSCF Line'>}"
mp-1195917,Na2 B14 H28 C4 N4 O28,4.7153,"{'mp-1195917': <CalcType.GGA_Structure_Optimization: 'GGA Structure Optimization'>, 'mp-1881564': <CalcType.GGA_Static: 'GGA Static'>}"
mp-1210766,Rb10 H2 W6 S8 N4 O28,0.0,"{'mp-1210766': <CalcType.GGA_U_Structure_Optimization: 'GGA+U Structure Optimization'>, 'mp-1329914': <CalcType.GGA_U_Static: 'GGA+U Static'>, 'mp-1851500': <CalcType.GGA_U_Static: 'GGA+U Static'>}"
mp-43094,Ca6 Ti4 Al2 Si6 O28 F2,3.0113,"{'mp-728065': <CalcType.GGA_Static: 'GGA Static'>, 'mp-729574': <CalcType.GGA_NSCF_Line: 'GGA NSCF Line'>, 'mp-43094': <CalcType.GGA_Structure_Optimization: 'GGA Structure Optimization'>, 'mp-1134239': <CalcType.GGA_Structure_Optimization: 'GGA Structure Optimization'>, 'mp-1248923': <CalcType.GGA_Structure_Optimization: 'GGA Structure Optimization'>, 'mp-1249724': <CalcType.GGA_NMR_Nuclear_Shielding: 'GGA NMR Nuclear Shielding'>, 'mp-1250321': <CalcType.GGA_NMR_Electric_Field_Gradient: 'GGA NMR Electric Field Gradient'>, 'mp-1251897': <CalcType.GGA_Structure_Optimization: 'GGA Structure Optimization'>, 'mp-1255509': <CalcType.GGA_NMR_Electric_Field_Gradient: 'GGA NMR Electric Field Gradient'>, 'mp-1257621': <CalcType.GGA_NMR_Nuclear_Shielding: 'GGA NMR Nuclear Shielding'>, 'mp-1349003': <CalcType.GGA_Static: 'GGA Static'>, 'mp-1684208': <CalcType.GGA_NSCF_Uniform: 'GGA NSCF Uniform'>, 'mp-1883373': <CalcType.GGA_Static: 'GGA Static'>, 'mp-734102': <CalcType.GGA_NSCF_Line: 'GGA NSCF Line'>}"
mp-729907,Ni1 H48 C16 S8 N2 O14,3.3798,"{'mp-818680': <CalcType.GGA_U_Static: 'GGA+U Static'>, 'mp-744812': <CalcType.GGA_U_Structure_Optimization: 'GGA+U Structure Optimization'>, 'mp-729907': <CalcType.GGA_Static: 'GGA Static'>, 'mp-833823': <CalcType.GGA_Static: 'GGA Static'>, 'mp-1363936': <CalcType.GGA_U_Static: 'GGA+U Static'>, 'mp-1845198': <CalcType.GGA_U_Static: 'GGA+U Static'>}"
mp-772293,Na2 Li10 Fe4 P4 C4 O28,1.9868000000000001,"{'mp-804346': <CalcType.GGA_U_Static: 'GGA+U Static'>, 'mp-813263': <CalcType.GGA_U_NSCF_Line: 'GGA+U NSCF Line'>, 'mp-773436': <CalcType.GGA_U_Structure_Optimization: 'GGA+U Structure Optimization'>, 'mp-772293': <CalcType.GGA_Structure_Optimization: 'GGA Structure Optimization'>, 'mp-1350017': <CalcType.GGA_U_Static: 'GGA+U Static'>, 'mp-1683339': <CalcType.GGA_U_NSCF_Uniform: 'GGA+U NSCF Uniform'>, 'mp-1886392': <CalcType.GGA_U_Static: 'GGA+U Static'>, 'mp-813963': <CalcType.GGA_U_NSCF_Line: 'GGA+U NSCF Line'>}"
mp-772483,Na10 Li2 Mn4 P4 C4 O28,3.5705,"{'mp-773680': <CalcType.GGA_U_Structure_Optimization: 'GGA+U Structure Optimization'>, 'mp-804362': <CalcType.GGA_U_Static: 'GGA+U Static'>, 'mp-813304': <CalcType.GGA_U_NSCF_Line: 'GGA+U NSCF Line'>, 'mp-832703': <CalcType.GGA_NSCF_Line: 'GGA NSCF Line'>, 'mp-772483': <CalcType.GGA_Structure_Optimization: 'GGA Structure Optimization'>, 'mp-828852': <CalcType.GGA_Static: 'GGA Static'>, 'mp-1348784': <CalcType.GGA_U_Static: 'GGA+U Static'>, 'mp-1890920': <CalcType.GGA_U_Static: 'GGA+U Static'>, 'mp-833462': <CalcType.GGA_NSCF_Line: 'GGA NSCF Line'>, 'mp-814002': <CalcType.GGA_U_NSCF_Line: 'GGA+U NSCF Line'>}"
mp-772670,Na10 Li2 Fe4 P4 C4 O28,3.8022,"{'mp-804317': <CalcType.GGA_U_Static: 'GGA+U Static'>, 'mp-773446': <CalcType.GGA_U_Structure_Optimization: 'GGA+U Structure Optimization'>, 'mp-813262': <CalcType.GGA_U_NSCF_Line: 'GGA+U NSCF Line'>, 'mp-772670': <CalcType.GGA_Structure_Optimization: 'GGA Structure Optimization'>, 'mp-887010': <CalcType.GGA_Static: 'GGA Static'>, 'mp-1351258': <CalcType.GGA_U_Static: 'GGA+U Static'>, 'mp-1880747': <CalcType.GGA_U_Static: 'GGA+U Static'>, 'mp-813966': <CalcType.GGA_U_NSCF_Line: 'GGA+U NSCF Line'>}"
mp-772306,Na10 Li2 Fe4 P4 C4 O28,3.8063000000000002,"{'mp-804283': <CalcType.GGA_U_Static: 'GGA+U Static'>, 'mp-813237': <CalcType.GGA_U_NSCF_Line: 'GGA+U NSCF Line'>, 'mp-773414': <CalcType.GGA_U_Structure_Optimization: 'GGA+U Structure Optimization'>, 'mp-772306': <CalcType.GGA_Structure_Optimization: 'GGA Structure Optimization'>, 'mp-1351002': <CalcType.GGA_U_Static: 'GGA+U Static'>, 'mp-1907622': <CalcType.GGA_U_Static: 'GGA+U Static'>, 'mp-813959': <CalcType.GGA_U_NSCF_Line: 'GGA+U NSCF Line'>}"
mp-772652,Na2 Li10 Mn4 P4 C4 O28,3.843499999999999,"{'mp-773772': <CalcType.GGA_U_Structure_Optimization: 'GGA+U Structure Optimization'>, 'mp-813446': <CalcType.GGA_U_NSCF_Line: 'GGA+U NSCF Line'>, 'mp-804744': <CalcType.GGA_U_Static: 'GGA+U Static'>, 'mp-772652': <CalcType.GGA_Structure_Optimization: 'GGA Structure Optimization'>, 'mp-832729': <CalcType.GGA_NSCF_Line: 'GGA NSCF Line'>, 'mp-1348666': <CalcType.GGA_U_Static: 'GGA+U Static'>, 'mp-1768716': <CalcType.GGA_U_Static: 'GGA+U Static'>, 'mp-1885120': <CalcType.GGA_U_Static: 'GGA+U Static'>, 'mp-814185': <CalcType.GGA_U_NSCF_Line: 'GGA+U NSCF Line'>, 'mp-833512': <CalcType.GGA_NSCF_Line: 'GGA NSCF Line'>}"
mp-772727,Na2 Li10 Mn4 P4 C4 O28,3.840899999999999,"{'mp-804751': <CalcType.GGA_U_Static: 'GGA+U Static'>, 'mp-773931': <CalcType.GGA_U_Structure_Optimization: 'GGA+U Structure Optimization'>, 'mp-813552': <CalcType.GGA_U_NSCF_Line: 'GGA+U NSCF Line'>, 'mp-772727': <CalcType.GGA_Structure_Optimization: 'GGA Structure Optimization'>, 'mp-786551': <CalcType.GGA_Static: 'GGA Static'>, 'mp-829659': <CalcType.GGA_Static: 'GGA Static'>, 'mp-832741': <CalcType.GGA_NSCF_Line: 'GGA NSCF Line'>, 'mp-1349954': <CalcType.GGA_U_Static: 'GGA+U Static'>, 'mp-1770255': <CalcType.GGA_U_Static: 'GGA+U Static'>, 'mp-1936479': <CalcType.GGA_U_Static: 'GGA+U Static'>, 'mp-833507': <CalcType.GGA_NSCF_Line: 'GGA NSCF Line'>, 'mp-814265': <CalcType.GGA_U_NSCF_Line: 'GGA+U NSCF Line'>}"
mp-772636,Na2 Li10 Fe4 P4 C4 O28,1.798899999999999,"{'mp-773735': <CalcType.GGA_U_Structure_Optimization: 'GGA+U Structure Optimization'>, 'mp-804737': <CalcType.GGA_U_Static: 'GGA+U Static'>, 'mp-813387': <CalcType.GGA_U_NSCF_Line: 'GGA+U NSCF Line'>, 'mp-772636': <CalcType.GGA_Structure_Optimization: 'GGA Structure Optimization'>, 'mp-887027': <CalcType.GGA_Static: 'GGA Static'>, 'mp-1352493': <CalcType.GGA_U_Static: 'GGA+U Static'>, 'mp-1683689': <CalcType.GGA_U_NSCF_Uniform: 'GGA+U NSCF Uniform'>, 'mp-1865941': <CalcType.GGA_U_Static: 'GGA+U Static'>, 'mp-814041': <CalcType.GGA_U_NSCF_Line: 'GGA+U NSCF Line'>}"
mp-772728,Na10 Li2 Mn4 P4 C4 O28,3.5609,"{'mp-804428': <CalcType.GGA_U_Static: 'GGA+U Static'>, 'mp-773941': <CalcType.GGA_U_Structure_Optimization: 'GGA+U Structure Optimization'>, 'mp-813529': <CalcType.GGA_U_NSCF_Line: 'GGA+U NSCF Line'>, 'mp-772728': <CalcType.GGA_Structure_Optimization: 'GGA Structure Optimization'>, 'mp-832730': <CalcType.GGA_NSCF_Line: 'GGA NSCF Line'>, 'mp-1349431': <CalcType.GGA_U_Static: 'GGA+U Static'>, 'mp-1771936': <CalcType.GGA_U_Static: 'GGA+U Static'>, 'mp-1937099': <CalcType.GGA_U_Static: 'GGA+U Static'>, 'mp-833510': <CalcType.GGA_NSCF_Line: 'GGA NSCF Line'>, 'mp-814271': <CalcType.GGA_U_NSCF_Line: 'GGA+U NSCF Line'>}"
mp-695670,Na2 Ca6 Mg2 Fe2 Si8 O28,0.257899999999999,"{'mp-744149': <CalcType.GGA_U_Structure_Optimization: 'GGA+U Structure Optimization'>, 'mp-824710': <CalcType.GGA_U_NSCF_Line: 'GGA+U NSCF Line'>, 'mp-818629': <CalcType.GGA_U_Static: 'GGA+U Static'>, 'mp-726196': <CalcType.GGA_Static: 'GGA Static'>, 'mp-1248402': <CalcType.GGA_U_Structure_Optimization: 'GGA+U Structure Optimization'>, 'mp-1248900': <CalcType.GGA_U_NMR_Nuclear_Shielding: 'GGA+U NMR Nuclear Shielding'>, 'mp-1249134': <CalcType.GGA_U_NMR_Electric_Field_Gradient: 'GGA+U NMR Electric Field Gradient'>, 'mp-695670': <CalcType.GGA_Structure_Optimization: 'GGA Structure Optimization'>, 'mp-840391': <CalcType.GGA_NSCF_Line: 'GGA NSCF Line'>, 'mp-1353447': <CalcType.GGA_U_Static: 'GGA+U Static'>, 'mp-1684489': <CalcType.GGA_U_NSCF_Uniform: 'GGA+U NSCF Uniform'>, 'mp-840561': <CalcType.GGA_NSCF_Line: 'GGA NSCF Line'>, 'mp-825213': <CalcType.GGA_U_NSCF_Line: 'GGA+U NSCF Line'>}"
mp-683793,Fe16 Te8 Mo4 C56 S8 O56,1.7006000000000001,"{'mp-818738': <CalcType.GGA_U_Static: 'GGA+U Static'>, 'mp-683793': <CalcType.GGA_U_Structure_Optimization: 'GGA+U Structure Optimization'>, 'mp-837159': <CalcType.GGA_Static: 'GGA Static'>, 'mp-838499': <CalcType.GGA_NSCF_Line: 'GGA NSCF Line'>, 'mp-1332435': <CalcType.GGA_U_Static: 'GGA+U Static'>}"
mp-1225031,K2 Rb2 Cu2 H24 Se4 O28,0.5293,"{'mp-1225031': <CalcType.GGA_Structure_Optimization: 'GGA Structure Optimization'>, 'mp-1238636': <CalcType.GGA_Structure_Optimization: 'GGA Structure Optimization'>, 'mp-1324226': <CalcType.GGA_Static: 'GGA Static'>, 'mp-1880741': <CalcType.GGA_Static: 'GGA Static'>}"
mp-556589,Ga2 H40 C4 S4 N2 O28,4.713999999999999,"{'mp-654877': <CalcType.GGA_Static: 'GGA Static'>, 'mp-656234': <CalcType.GGA_NSCF_Line: 'GGA NSCF Line'>, 'mp-659461': <CalcType.GGA_NSCF_Line: 'GGA NSCF Line'>, 'mp-556589': <CalcType.GGA_Structure_Optimization: 'GGA Structure Optimization'>, 'mp-1181391': <CalcType.GGA_Structure_Optimization: 'GGA Structure Optimization'>, 'mp-1350622': <CalcType.GGA_Static: 'GGA Static'>, 'mp-1680118': <CalcType.GGA_NSCF_Uniform: 'GGA NSCF Uniform'>, 'mp-1891961': <CalcType.GGA_Static: 'GGA Static'>}"
mp-772235,Na10 Li2 Mn4 P4 C4 O28,3.5805,"{'mp-773408': <CalcType.GGA_U_Structure_Optimization: 'GGA+U Structure Optimization'>, 'mp-804275': <CalcType.GGA_U_Static: 'GGA+U Static'>, 'mp-813178': <CalcType.GGA_U_NSCF_Line: 'GGA+U NSCF Line'>, 'mp-772235': <CalcType.GGA_Structure_Optimization: 'GGA Structure Optimization'>, 'mp-786029': <CalcType.GGA_Static: 'GGA Static'>, 'mp-828802': <CalcType.GGA_Static: 'GGA Static'>, 'mp-832634': <CalcType.GGA_NSCF_Line: 'GGA NSCF Line'>, 'mp-1352701': <CalcType.GGA_U_Static: 'GGA+U Static'>, 'mp-1879743': <CalcType.GGA_U_Static: 'GGA+U Static'>, 'mp-833427': <CalcType.GGA_NSCF_Line: 'GGA NSCF Line'>, 'mp-813965': <CalcType.GGA_U_NSCF_Line: 'GGA+U NSCF Line'>}"
mp-772308,Na10 Li2 Mn4 P4 C4 O28,3.5713,"{'mp-804277': <CalcType.GGA_U_Static: 'GGA+U Static'>, 'mp-773413': <CalcType.GGA_U_Structure_Optimization: 'GGA+U Structure Optimization'>, 'mp-813180': <CalcType.GGA_U_NSCF_Line: 'GGA+U NSCF Line'>, 'mp-772308': <CalcType.GGA_Structure_Optimization: 'GGA Structure Optimization'>, 'mp-828801': <CalcType.GGA_Static: 'GGA Static'>, 'mp-786355': <CalcType.GGA_Static: 'GGA Static'>, 'mp-832636': <CalcType.GGA_NSCF_Line: 'GGA NSCF Line'>, 'mp-1351292': <CalcType.GGA_U_Static: 'GGA+U Static'>, 'mp-1877374': <CalcType.GGA_U_Static: 'GGA+U Static'>, 'mp-833431': <CalcType.GGA_NSCF_Line: 'GGA NSCF Line'>, 'mp-813960': <CalcType.GGA_U_NSCF_Line: 'GGA+U NSCF Line'>}"
mp-772237,Na2 Li10 Fe4 P4 C4 O28,2.1727,"{'mp-772602': <CalcType.GGA_U_Structure_Optimization: 'GGA+U Structure Optimization'>, 'mp-804185': <CalcType.GGA_U_Static: 'GGA+U Static'>, 'mp-813123': <CalcType.GGA_U_NSCF_Line: 'GGA+U NSCF Line'>, 'mp-772237': <CalcType.GGA_Structure_Optimization: 'GGA Structure Optimization'>, 'mp-886941': <CalcType.GGA_Static: 'GGA Static'>, 'mp-1350870': <CalcType.GGA_U_Static: 'GGA+U Static'>, 'mp-1685975': <CalcType.GGA_U_NSCF_Uniform: 'GGA+U NSCF Uniform'>, 'mp-1883132': <CalcType.GGA_U_Static: 'GGA+U Static'>, 'mp-813884': <CalcType.GGA_U_NSCF_Line: 'GGA+U NSCF Line'>}"
mp-772418,Na2 Li10 Mn4 P4 C4 O28,2.647999999999999,"{'mp-774181': <CalcType.GGA_U_Structure_Optimization: 'GGA+U Structure Optimization'>, 'mp-805105': <CalcType.GGA_U_Static: 'GGA+U Static'>, 'mp-813674': <CalcType.GGA_U_NSCF_Line: 'GGA+U NSCF Line'>, 'mp-772418': <CalcType.GGA_Structure_Optimization: 'GGA Structure Optimization'>, 'mp-832662': <CalcType.GGA_NSCF_Line: 'GGA NSCF Line'>, 'mp-828825': <CalcType.GGA_Static: 'GGA Static'>, 'mp-1351197': <CalcType.GGA_U_Static: 'GGA+U Static'>, 'mp-1682017': <CalcType.GGA_U_NSCF_Uniform: 'GGA+U NSCF Uniform'>, 'mp-1884845': <CalcType.GGA_U_Static: 'GGA+U Static'>, 'mp-833450': <CalcType.GGA_NSCF_Line: 'GGA NSCF Line'>, 'mp-814458': <CalcType.GGA_U_NSCF_Line: 'GGA+U NSCF Line'>}"
mp-772536,Na10 Li2 Fe4 P4 C4 O28,3.7899000000000003,"{'mp-773529': <CalcType.GGA_U_Structure_Optimization: 'GGA+U Structure Optimization'>, 'mp-813226': <CalcType.GGA_U_NSCF_Line: 'GGA+U NSCF Line'>, 'mp-804349': <CalcType.GGA_U_Static: 'GGA+U Static'>, 'mp-772536': <CalcType.GGA_Structure_Optimization: 'GGA Structure Optimization'>, 'mp-886987': <CalcType.GGA_Static: 'GGA Static'>, 'mp-1348916': <CalcType.GGA_U_Static: 'GGA+U Static'>, 'mp-1890845': <CalcType.GGA_U_Static: 'GGA+U Static'>, 'mp-813989': <CalcType.GGA_U_NSCF_Line: 'GGA+U NSCF Line'>}"
mp-772514,Na10 Li2 Fe4 P4 C4 O28,3.8318000000000003,"{'mp-773528': <CalcType.GGA_U_Structure_Optimization: 'GGA+U Structure Optimization'>, 'mp-804352': <CalcType.GGA_U_Static: 'GGA+U Static'>, 'mp-813241': <CalcType.GGA_U_NSCF_Line: 'GGA+U NSCF Line'>, 'mp-772514': <CalcType.GGA_Structure_Optimization: 'GGA Structure Optimization'>, 'mp-886981': <CalcType.GGA_Static: 'GGA Static'>, 'mp-1351549': <CalcType.GGA_U_Static: 'GGA+U Static'>, 'mp-1937603': <CalcType.GGA_U_Static: 'GGA+U Static'>, 'mp-813988': <CalcType.GGA_U_NSCF_Line: 'GGA+U NSCF Line'>}"
mp-772274,Na2 Li10 Fe4 P4 C4 O28,2.0608,"{'mp-804282': <CalcType.GGA_U_Static: 'GGA+U Static'>, 'mp-773409': <CalcType.GGA_U_Structure_Optimization: 'GGA+U Structure Optimization'>, 'mp-813204': <CalcType.GGA_U_NSCF_Line: 'GGA+U NSCF Line'>, 'mp-772274': <CalcType.GGA_Structure_Optimization: 'GGA Structure Optimization'>, 'mp-1349629': <CalcType.GGA_U_Static: 'GGA+U Static'>, 'mp-1682871': <CalcType.GGA_U_NSCF_Uniform: 'GGA+U NSCF Uniform'>, 'mp-1883305': <CalcType.GGA_U_Static: 'GGA+U Static'>, 'mp-813956': <CalcType.GGA_U_NSCF_Line: 'GGA+U NSCF Line'>}"
mp-772615,Na2 Li10 Mn4 P4 C4 O28,2.756899999999999,"{'mp-804355': <CalcType.GGA_U_Static: 'GGA+U Static'>, 'mp-813249': <CalcType.GGA_U_NSCF_Line: 'GGA+U NSCF Line'>, 'mp-773539': <CalcType.GGA_U_Structure_Optimization: 'GGA+U Structure Optimization'>, 'mp-772615': <CalcType.GGA_Structure_Optimization: 'GGA Structure Optimization'>, 'mp-832661': <CalcType.GGA_NSCF_Line: 'GGA NSCF Line'>, 'mp-828828': <CalcType.GGA_Static: 'GGA Static'>, 'mp-1352643': <CalcType.GGA_U_Static: 'GGA+U Static'>, 'mp-1685326': <CalcType.GGA_U_NSCF_Uniform: 'GGA+U NSCF Uniform'>, 'mp-1887248': <CalcType.GGA_U_Static: 'GGA+U Static'>, 'mp-833456': <CalcType.GGA_NSCF_Line: 'GGA NSCF Line'>, 'mp-813996': <CalcType.GGA_U_NSCF_Line: 'GGA+U NSCF Line'>}"
mp-1218546,Sr4 Ca1 Y1 Ga2 Cu4 O14,0.0,"{'mp-1218546': <CalcType.GGA_Structure_Optimization: 'GGA Structure Optimization'>, 'mp-1379849': <CalcType.GGA_Static: 'GGA Static'>, 'mp-1841784': <CalcType.GGA_Static: 'GGA Static'>}"
mp-1233034,Ba1 Mg1 Al3 P2 H2 O14,0.0,"{'mp-1233034': <CalcType.GGA_Static: 'GGA Static'>, 'mp-1233903': <CalcType.GGA_Structure_Optimization: 'GGA Structure Optimization'>, 'mp-1239416': <CalcType.GGA_Structure_Optimization: 'GGA Structure Optimization'>, 'mp-1926786': <CalcType.GGA_Static: 'GGA Static'>}"
mp-756691,Li12 Co2 Ni2 P4 C4 O28,2.848799999999999,"{'mp-767291': <CalcType.GGA_U_Structure_Optimization: 'GGA+U Structure Optimization'>, 'mp-809609': <CalcType.GGA_U_NSCF_Line: 'GGA+U NSCF Line'>, 'mp-802290': <CalcType.GGA_U_Static: 'GGA+U Static'>, 'mp-756691': <CalcType.GGA_Structure_Optimization: 'GGA Structure Optimization'>, 'mp-884114': <CalcType.GGA_Static: 'GGA Static'>, 'mp-1326561': <CalcType.GGA_U_Static: 'GGA+U Static'>, 'mp-1654029': <CalcType.GGA_U_Structure_Optimization: 'GGA+U Structure Optimization'>, 'mp-1650318': <CalcType.GGA_U_Structure_Optimization: 'GGA+U Structure Optimization'>, 'mp-1651748': <CalcType.GGA_U_Static: 'GGA+U Static'>, 'mp-1651059': <CalcType.GGA_U_Structure_Optimization: 'GGA+U Structure Optimization'>, 'mp-1649999': <CalcType.GGA_U_Static: 'GGA+U Static'>, 'mp-1653020': <CalcType.GGA_U_Static: 'GGA+U Static'>, 'mp-1650713': <CalcType.GGA_U_Structure_Optimization: 'GGA+U Structure Optimization'>, 'mp-1650203': <CalcType.GGA_U_Static: 'GGA+U Static'>, 'mp-1653383': <CalcType.GGA_U_Static: 'GGA+U Static'>, 'mp-1653221': <CalcType.GGA_U_Structure_Optimization: 'GGA+U Structure Optimization'>, 'mp-1650758': <CalcType.GGA_U_Structure_Optimization: 'GGA+U Structure Optimization'>, 'mp-1666378': <CalcType.GGA_U_Static: 'GGA+U Static'>, 'mp-1667718': <CalcType.GGA_U_Structure_Optimization: 'GGA+U Structure Optimization'>, 'mp-1666315': <CalcType.GGA_U_Structure_Optimization: 'GGA+U Structure Optimization'>, 'mp-1666515': <CalcType.GGA_U_Structure_Optimization: 'GGA+U Structure Optimization'>, 'mp-1883319': <CalcType.GGA_U_Static: 'GGA+U Static'>, 'mp-809853': <CalcType.GGA_U_NSCF_Line: 'GGA+U NSCF Line'>}"
mp-753528,Li6 Fe1 Ni1 P2 C2 O14,3.175599999999999,"{'mp-809603': <CalcType.GGA_U_NSCF_Line: 'GGA+U NSCF Line'>, 'mp-767289': <CalcType.GGA_U_Structure_Optimization: 'GGA+U Structure Optimization'>, 'mp-802284': <CalcType.GGA_U_Static: 'GGA+U Static'>, 'mp-753528': <CalcType.GGA_Structure_Optimization: 'GGA Structure Optimization'>, 'mp-884103': <CalcType.GGA_Static: 'GGA Static'>, 'mp-1379689': <CalcType.GGA_U_Static: 'GGA+U Static'>, 'mp-1574066': <CalcType.GGA_U_Structure_Optimization: 'GGA+U Structure Optimization'>, 'mp-1650672': <CalcType.GGA_U_Structure_Optimization: 'GGA+U Structure Optimization'>, 'mp-1652829': <CalcType.GGA_U_Static: 'GGA+U Static'>, 'mp-1667664': <CalcType.GGA_U_Structure_Optimization: 'GGA+U Structure Optimization'>, 'mp-809839': <CalcType.GGA_U_NSCF_Line: 'GGA+U NSCF Line'>}"