Material ID,Composition,Band Gap,Calc Types
mp-2713894,Na3 Mg3 Nb9 Si9 S9 O72,1.065299999999999,{'mp-2713894': <CalcType.GGA_Structure_Optimization: 'GGA Structure Optimization'>}
mp-2713864,Na9 La6 Ga6 P9 S9 O72,2.8627000000000002,{'mp-2713864': <CalcType.GGA_Structure_Optimization: 'GGA Structure Optimization'>}
mp-2713919,Na18 Hf6 Si15 Ge6 S3 O72,2.4801,{'mp-2713919': <CalcType.GGA_Structure_Optimization: 'GGA Structure Optimization'>}
mp-2713825,Na3 Ta3 Ti9 Si9 S9 O72,1.6471,{'mp-2713825': <CalcType.GGA_Structure_Optimization: 'GGA Structure Optimization'>}
mp-2713826,Na9 La6 Sc6 P9 S9 O72,4.0104,{'mp-2713826': <CalcType.GGA_Structure_Optimization: 'GGA Structure Optimization'>}
mp-2713829,Na18 Mg6 Zn6 Si3 S15 O72,3.4029,{'mp-2713829': <CalcType.GGA_Structure_Optimization: 'GGA Structure Optimization'>}
mp-2713852,Na9 Al6 Ga6 P9 S9 O72,4.1326,{'mp-2713852': <CalcType.GGA_Structure_Optimization: 'GGA Structure Optimization'>}
mp-2713870,Na18 Sc6 Ta6 Si15 S3 O72,3.1013,{'mp-2713870': <CalcType.GGA_Structure_Optimization: 'GGA Structure Optimization'>}
mp-2713897,Na9 La6 Y6 P9 S9 O72,4.5247,{'mp-2713897': <CalcType.GGA_Structure_Optimization: 'GGA Structure Optimization'>}
mp-2713842,Na3 Nb3 Si9 Ge9 S9 O72,1.8353000000000002,{'mp-2713842': <CalcType.GGA_Structure_Optimization: 'GGA Structure Optimization'>}
mp-2713867,Na3 Ca3 Ta9 Si9 S9 O72,1.4136,{'mp-2713867': <CalcType.GGA_Structure_Optimization: 'GGA Structure Optimization'>}
mp-2713913,Na9 La6 In6 P9 S9 O72,2.8756999999999993,{'mp-2713913': <CalcType.GGA_Structure_Optimization: 'GGA Structure Optimization'>}
mp-2713960,Na9 Mg6 Ti6 P9 S9 O72,2.2884,{'mp-2713960': <CalcType.GGA_Structure_Optimization: 'GGA Structure Optimization'>}
mp-2714019,Na3 Zr9 Ta3 Si9 S9 O72,2.5445,{'mp-2714019': <CalcType.GGA_Structure_Optimization: 'GGA Structure Optimization'>}
mp-2713928,Na9 Y6 Ga6 P9 S9 O72,3.1419,{'mp-2713928': <CalcType.GGA_Structure_Optimization: 'GGA Structure Optimization'>}
mp-2713991,Na9 Zr6 Zn6 P9 S9 O72,4.083699999999999,{'mp-2713991': <CalcType.GGA_Structure_Optimization: 'GGA Structure Optimization'>}
mp-2714020,Na3 Ta9 Zn3 Si9 S9 O72,1.610599999999999,{'mp-2714020': <CalcType.GGA_Structure_Optimization: 'GGA Structure Optimization'>}
mp-2713964,Na9 Ca6 Zr6 P9 S9 O72,3.910399999999999,{'mp-2713964': <CalcType.GGA_Structure_Optimization: 'GGA Structure Optimization'>}
mp-2713974,Na18 Hf6 Ti6 Si15 S3 O72,2.5584,{'mp-2713974': <CalcType.GGA_Structure_Optimization: 'GGA Structure Optimization'>}
mp-2713935,Na18 Ca6 Mg6 Si3 S15 O72,3.6799,{'mp-2713935': <CalcType.GGA_Structure_Optimization: 'GGA Structure Optimization'>}
mp-2713976,Na6 Ta6 Al6 Si9 S9 O72,1.2679,{'mp-2713976': <CalcType.GGA_Structure_Optimization: 'GGA Structure Optimization'>}
mp-2713937,Na18 Ti6 Si15 Ge6 S3 O72,2.717,{'mp-2713937': <CalcType.GGA_Structure_Optimization: 'GGA Structure Optimization'>}
mp-2713938,Na18 Nb6 Ga6 Si15 S3 O72,2.2638,{'mp-2713938': <CalcType.GGA_Structure_Optimization: 'GGA Structure Optimization'>}
mp-2713965,Na3 Mg3 Ta9 Si9 S9 O72,1.5814,{'mp-2713965': <CalcType.GGA_Structure_Optimization: 'GGA Structure Optimization'>}
mp-2714016,Na3 Hf9 Nb3 Si9 S9 O72,1.6162,{'mp-2714016': <CalcType.GGA_Structure_Optimization: 'GGA Structure Optimization'>}
mp-2713948,Na9 Ca6 Ti6 P9 S9 O72,2.1794000000000002,{'mp-2713948': <CalcType.GGA_Structure_Optimization: 'GGA Structure Optimization'>}
mp-2713952,Na18 Nb6 Al6 Si15 S3 O72,2.296899999999999,{'mp-2713952': <CalcType.GGA_Structure_Optimization: 'GGA Structure Optimization'>}
mp-2713939,Na9 Ca6 Sn6 P9 S9 O72,2.4409,{'mp-2713939': <CalcType.GGA_Structure_Optimization: 'GGA Structure Optimization'>}
mp-2713940,Na9 In6 Ga6 P9 S9 O72,1.166,{'mp-2713940': <CalcType.GGA_Structure_Optimization: 'GGA Structure Optimization'>}
mp-2713945,Na9 Ca6 Ge6 P9 S9 O72,2.265399999999999,{'mp-2713945': <CalcType.GGA_Structure_Optimization: 'GGA Structure Optimization'>}
mp-2713969,Na18 Hf6 Si15 Sn6 S3 O72,2.7721,{'mp-2713969': <CalcType.GGA_Structure_Optimization: 'GGA Structure Optimization'>}
mp-2713970,Na9 Y6 Sc6 P9 S9 O72,4.1445,{'mp-2713970': <CalcType.GGA_Structure_Optimization: 'GGA Structure Optimization'>}
mp-2713982,Na18 Y6 Nb6 Si15 S3 O72,2.2492,{'mp-2713982': <CalcType.GGA_Structure_Optimization: 'GGA Structure Optimization'>}
mp-2713988,Na9 Hf6 Zn6 P9 S9 O72,4.6276,{'mp-2713988': <CalcType.GGA_Structure_Optimization: 'GGA Structure Optimization'>}
mp-2713966,Na9 Al6 In6 P9 S9 O72,3.5747,{'mp-2713966': <CalcType.GGA_Structure_Optimization: 'GGA Structure Optimization'>}
mp-2713975,Na3 Nb3 Si9 Sn9 S9 O72,1.6004,{'mp-2713975': <CalcType.GGA_Structure_Optimization: 'GGA Structure Optimization'>}
mp-2714010,Na18 Sc6 Nb6 Si15 S3 O72,2.232299999999999,{'mp-2714010': <CalcType.GGA_Structure_Optimization: 'GGA Structure Optimization'>}
mp-2714015,Na3 Ta3 Si9 Sn9 S9 O72,1.4913999999999992,{'mp-2714015': <CalcType.GGA_Structure_Optimization: 'GGA Structure Optimization'>}
mp-2714029,Na3 Ca6 Zr6 P3 S15 O72,2.9646,{'mp-2714029': <CalcType.GGA_Structure_Optimization: 'GGA Structure Optimization'>}
mp-2714039,Na21 Sc9 Zn3 Si9 S9 O72,3.748,{'mp-2714039': <CalcType.GGA_Structure_Optimization: 'GGA Structure Optimization'>}
mp-2714047,Na15 Mg3 Ti9 Si3 P15 O72,1.9647000000000001,{'mp-2714047': <CalcType.GGA_Structure_Optimization: 'GGA Structure Optimization'>}
mp-2714060,Na3 Mg6 Zr6 P3 S15 O72,3.2805,{'mp-2714060': <CalcType.GGA_Structure_Optimization: 'GGA Structure Optimization'>}
mp-2714066,Na15 La6 Nb6 Si9 P9 O72,1.8062,{'mp-2714066': <CalcType.GGA_Structure_Optimization: 'GGA Structure Optimization'>}
mp-2714035,Na3 Y6 In6 P3 S15 O72,2.7157,{'mp-2714035': <CalcType.GGA_Structure_Optimization: 'GGA Structure Optimization'>}
mp-2714045,Na15 Sc6 Ti6 Si3 P15 O72,2.2157,{'mp-2714045': <CalcType.GGA_Structure_Optimization: 'GGA Structure Optimization'>}
mp-2714064,Na3 Y6 Al6 P3 S15 O72,3.6839,{'mp-2714064': <CalcType.GGA_Structure_Optimization: 'GGA Structure Optimization'>}
mp-2714034,Na21 Ca9 Ta3 Si9 S9 O72,1.4685000000000001,{'mp-2714034': <CalcType.GGA_Structure_Optimization: 'GGA Structure Optimization'>}
mp-2714049,Na3 Al6 Ga6 P3 S15 O72,2.9887,{'mp-2714049': <CalcType.GGA_Structure_Optimization: 'GGA Structure Optimization'>}
mp-2714072,Na21 Y9 Mg3 Si9 S9 O72,3.4751,{'mp-2714072': <CalcType.GGA_Structure_Optimization: 'GGA Structure Optimization'>}
mp-2714042,Na15 Y9 Ta3 Si3 P15 O72,3.1993,{'mp-2714042': <CalcType.GGA_Structure_Optimization: 'GGA Structure Optimization'>}
mp-2714057,Na3 Ca6 Hf6 P3 S15 O72,3.6435999999999993,{'mp-2714057': <CalcType.GGA_Structure_Optimization: 'GGA Structure Optimization'>}
mp-2714025,Na3 Zn6 Sn6 P3 S15 O72,1.516699999999999,{'mp-2714025': <CalcType.GGA_Structure_Optimization: 'GGA Structure Optimization'>}
mp-2714026,Na21 Y9 Zn3 Si9 S9 O72,3.4949,{'mp-2714026': <CalcType.GGA_Structure_Optimization: 'GGA Structure Optimization'>}
mp-2714046,Na15 Nb3 Ga9 Si3 P15 O72,2.4085,{'mp-2714046': <CalcType.GGA_Structure_Optimization: 'GGA Structure Optimization'>}
mp-2714053,Na15 Sc6 Nb6 Si9 P9 O72,2.2796,{'mp-2714053': <CalcType.GGA_Structure_Optimization: 'GGA Structure Optimization'>}
mp-2714054,Na15 Nb6 Al6 Si9 P9 O72,2.4279,{'mp-2714054': <CalcType.GGA_Structure_Optimization: 'GGA Structure Optimization'>}
mp-2714056,Na15 Ta6 Al6 Si9 P9 O72,3.2047,{'mp-2714056': <CalcType.GGA_Structure_Optimization: 'GGA Structure Optimization'>}
mp-2714099,Na21 Mg3 Al9 Si9 S9 O72,3.869099999999999,{'mp-2714099': <CalcType.GGA_Structure_Optimization: 'GGA Structure Optimization'>}
mp-2714102,Na15 Zr6 Si9 Ge6 P9 O72,2.839,{'mp-2714102': <CalcType.GGA_Structure_Optimization: 'GGA Structure Optimization'>}
mp-2714107,Na15 Y9 Nb3 Si3 P15 O72,2.3647,{'mp-2714107': <CalcType.GGA_Structure_Optimization: 'GGA Structure Optimization'>}
mp-2714116,Na15 Y6 Nb6 Si9 P9 O72,2.0857,{'mp-2714116': <CalcType.GGA_Structure_Optimization: 'GGA Structure Optimization'>}
mp-2714094,Na3 La6 Y6 P3 S15 O72,4.2993,{'mp-2714094': <CalcType.GGA_Structure_Optimization: 'GGA Structure Optimization'>}
mp-2714109,Na15 Mg3 Si3 Ge9 P15 O72,2.093099999999999,{'mp-2714109': <CalcType.GGA_Structure_Optimization: 'GGA Structure Optimization'>}
mp-2714139,Na15 Zr6 Ti6 Si9 P9 O72,2.491,{'mp-2714139': <CalcType.GGA_Structure_Optimization: 'GGA Structure Optimization'>}
mp-2714086,Na3 Y6 Sc6 P3 S15 O72,2.9797000000000002,{'mp-2714086': <CalcType.GGA_Structure_Optimization: 'GGA Structure Optimization'>}
mp-2714096,Na3 Zr6 Zn6 P3 S15 O72,0.0,{'mp-2714096': <CalcType.GGA_Structure_Optimization: 'GGA Structure Optimization'>}
mp-2714114,Na15 La6 Zr6 Si3 P15 O72,3.694099999999999,{'mp-2714114': <CalcType.GGA_Structure_Optimization: 'GGA Structure Optimization'>}
mp-2714115,Na21 Mg3 In9 Si9 S9 O72,0.1034,{'mp-2714115': <CalcType.GGA_Structure_Optimization: 'GGA Structure Optimization'>}
mp-2714140,Na15 Nb6 In6 Si9 P9 O72,2.158,{'mp-2714140': <CalcType.GGA_Structure_Optimization: 'GGA Structure Optimization'>}
mp-2714143,Na3 Ca6 Sn6 P3 S15 O72,0.6792,{'mp-2714143': <CalcType.GGA_Structure_Optimization: 'GGA Structure Optimization'>}
mp-2714104,Na21 Nb3 Zn9 Si9 S9 O72,0.8315999999999991,{'mp-2714104': <CalcType.GGA_Structure_Optimization: 'GGA Structure Optimization'>}
mp-2714170,Na15 Sc6 Si3 Ge6 P15 O72,2.2429,{'mp-2714170': <CalcType.GGA_Structure_Optimization: 'GGA Structure Optimization'>}
mp-2714176,Na6 La9 Nb3 P12 S6 O72,2.1698,{'mp-2714176': <CalcType.GGA_Structure_Optimization: 'GGA Structure Optimization'>}
mp-2714181,Na21 Mg9 Nb3 Si9 S9 O72,0.6248,{'mp-2714181': <CalcType.GGA_Structure_Optimization: 'GGA Structure Optimization'>}
mp-2714166,Na3 Mg6 Sn6 P3 S15 O72,1.477199999999999,{'mp-2714166': <CalcType.GGA_Structure_Optimization: 'GGA Structure Optimization'>}
mp-2714188,Na3 Sc6 Ga6 P3 S15 O72,2.3243,{'mp-2714188': <CalcType.GGA_Structure_Optimization: 'GGA Structure Optimization'>}
mp-2714197,Na3 Hf6 Zn6 P3 S15 O72,3.9809,{'mp-2714197': <CalcType.GGA_Structure_Optimization: 'GGA Structure Optimization'>}
mp-2714185,Na21 Al9 Zn3 Si9 S9 O72,3.671099999999999,{'mp-2714185': <CalcType.GGA_Structure_Optimization: 'GGA Structure Optimization'>}
mp-2714187,Na3 Sc6 Al6 P3 S15 O72,3.9297,{'mp-2714187': <CalcType.GGA_Structure_Optimization: 'GGA Structure Optimization'>}
mp-2714091,Na15 Y6 Ta6 Si9 P9 O72,2.793199999999999,{'mp-2714091': <CalcType.GGA_Structure_Optimization: 'GGA Structure Optimization'>}
mp-2714074,Na15 Si9 Sn6 Ge6 P9 O72,2.7912,{'mp-2714074': <CalcType.GGA_Structure_Optimization: 'GGA Structure Optimization'>}
mp-2714083,Na3 Al6 In6 P3 S15 O72,3.1773,{'mp-2714083': <CalcType.GGA_Structure_Optimization: 'GGA Structure Optimization'>}
mp-2714097,Na21 Ca9 Nb3 Si9 S9 O72,0.6636000000000001,{'mp-2714097': <CalcType.GGA_Structure_Optimization: 'GGA Structure Optimization'>}
mp-2714138,Na3 La6 Sc6 P3 S15 O72,3.2645,{'mp-2714138': <CalcType.GGA_Structure_Optimization: 'GGA Structure Optimization'>}
mp-2714082,Na3 Zn6 Ge6 P3 S15 O72,1.1335,{'mp-2714082': <CalcType.GGA_Structure_Optimization: 'GGA Structure Optimization'>}
mp-2714089,Na3 La6 Al6 P3 S15 O72,3.3922,{'mp-2714089': <CalcType.GGA_Structure_Optimization: 'GGA Structure Optimization'>}
mp-2714121,Na21 Zn3 In9 Si9 S9 O72,2.6498,{'mp-2714121': <CalcType.GGA_Structure_Optimization: 'GGA Structure Optimization'>}
mp-2714165,Na21 Ca3 Sc9 Si9 S9 O72,3.7742,{'mp-2714165': <CalcType.GGA_Structure_Optimization: 'GGA Structure Optimization'>}
mp-2714191,Na21 Ca3 Al9 Si9 S9 O72,3.562599999999999,{'mp-2714191': <CalcType.GGA_Structure_Optimization: 'GGA Structure Optimization'>}
mp-2714206,Na21 Ca3 Y9 Si9 S9 O72,3.4553000000000003,{'mp-2714206': <CalcType.GGA_Structure_Optimization: 'GGA Structure Optimization'>}
mp-2714239,Na3 Ca6 Ti6 P3 S15 O72,1.7626,{'mp-2714239': <CalcType.GGA_Structure_Optimization: 'GGA Structure Optimization'>}
mp-2714177,Na6 Ca3 Ti9 P12 S6 O72,1.892,{'mp-2714177': <CalcType.GGA_Structure_Optimization: 'GGA Structure Optimization'>}
mp-2714210,Na21 Ca3 Ga9 Si9 S9 O72,2.587499999999999,{'mp-2714210': <CalcType.GGA_Structure_Optimization: 'GGA Structure Optimization'>}
mp-2714226,Na3 Mg6 Ti6 P3 S15 O72,1.7855999999999992,{'mp-2714226': <CalcType.GGA_Structure_Optimization: 'GGA Structure Optimization'>}
mp-2714204,Na15 Y6 Hf6 Si3 P15 O72,4.337899999999999,{'mp-2714204': <CalcType.GGA_Structure_Optimization: 'GGA Structure Optimization'>}
mp-2714236,Na3 Hf6 Mg6 P3 S15 O72,3.938799999999999,{'mp-2714236': <CalcType.GGA_Structure_Optimization: 'GGA Structure Optimization'>}
mp-2714238,Na21 Zn3 Ga9 Si9 S9 O72,2.842,{'mp-2714238': <CalcType.GGA_Structure_Optimization: 'GGA Structure Optimization'>}
mp-2714225,Na15 Zr6 Si9 Sn6 P9 O72,3.1635,{'mp-2714225': <CalcType.GGA_Structure_Optimization: 'GGA Structure Optimization'>}
mp-2714234,Na21 Mg9 Ta3 Si9 S9 O72,1.2995,{'mp-2714234': <CalcType.GGA_Structure_Optimization: 'GGA Structure Optimization'>}
mp-2714240,Na15 Ti6 Si9 Sn6 P9 O72,2.647199999999999,{'mp-2714240': <CalcType.GGA_Structure_Optimization: 'GGA Structure Optimization'>}
mp-2714133,Na3 La6 In6 P3 S15 O72,1.5582,{'mp-2714133': <CalcType.GGA_Structure_Optimization: 'GGA Structure Optimization'>}
mp-2714186,Na15 Sc6 Ta6 Si9 P9 O72,3.061699999999999,{'mp-2714186': <CalcType.GGA_Structure_Optimization: 'GGA Structure Optimization'>}
mp-2714190,Na21 Mg3 Sc9 Si9 S9 O72,3.8061,{'mp-2714190': <CalcType.GGA_Structure_Optimization: 'GGA Structure Optimization'>}
mp-2714218,Na15 Hf6 Zr6 Si9 P9 O72,4.3155,{'mp-2714218': <CalcType.GGA_Structure_Optimization: 'GGA Structure Optimization'>}
mp-2714193,Na3 La6 Ga6 P3 S15 O72,1.81,{'mp-2714193': <CalcType.GGA_Structure_Optimization: 'GGA Structure Optimization'>}
mp-2714216,Na3 Mg6 Ge6 P3 S15 O72,0.9508999999999991,{'mp-2714216': <CalcType.GGA_Structure_Optimization: 'GGA Structure Optimization'>}
mp-2714247,Na15 Nb3 Al9 Si3 P15 O72,2.3454,{'mp-2714247': <CalcType.GGA_Structure_Optimization: 'GGA Structure Optimization'>}
mp-2714274,Na3 Ca6 Ge6 P3 S15 O72,0.297799999999999,{'mp-2714274': <CalcType.GGA_Structure_Optimization: 'GGA Structure Optimization'>}
mp-2714287,Na15 Hf6 Ti6 Si9 P9 O72,2.6414,{'mp-2714287': <CalcType.GGA_Structure_Optimization: 'GGA Structure Optimization'>}
mp-2714260,Na21 Ca3 In9 Si9 S9 O72,2.4413,{'mp-2714260': <CalcType.GGA_Structure_Optimization: 'GGA Structure Optimization'>}
mp-2714272,Na15 Zr6 Al6 Si3 P15 O72,3.999,{'mp-2714272': <CalcType.GGA_Structure_Optimization: 'GGA Structure Optimization'>}
mp-2714286,Na21 La9 Mg3 Si9 S9 O72,3.2707,{'mp-2714286': <CalcType.GGA_Structure_Optimization: 'GGA Structure Optimization'>}
mp-2714252,Na3 Ti6 Zn6 P3 S15 O72,1.7855,{'mp-2714252': <CalcType.GGA_Structure_Optimization: 'GGA Structure Optimization'>}
mp-2714282,Na21 Ta3 Zn9 Si9 S9 O72,1.545399999999999,{'mp-2714282': <CalcType.GGA_Structure_Optimization: 'GGA Structure Optimization'>}
mp-2714289,Na15 Hf6 Si9 Sn6 P9 O72,3.3461,{'mp-2714289': <CalcType.GGA_Structure_Optimization: 'GGA Structure Optimization'>}
mp-2714249,Na21 Mg3 Ga9 Si9 S9 O72,2.9585999999999992,{'mp-2714249': <CalcType.GGA_Structure_Optimization: 'GGA Structure Optimization'>}
mp-2714257,Na15 Ti6 Si9 Ge6 P9 O72,2.6449,{'mp-2714257': <CalcType.GGA_Structure_Optimization: 'GGA Structure Optimization'>}
mp-2714271,Na15 Hf6 Si9 Ge6 P9 O72,3.2333,{'mp-2714271': <CalcType.GGA_Structure_Optimization: 'GGA Structure Optimization'>}
mp-2714285,Na15 La6 Ta6 Si9 P9 O72,2.5366,{'mp-2714285': <CalcType.GGA_Structure_Optimization: 'GGA Structure Optimization'>}
mp-2714262,Na3 Ta6 Nb6 Si9 P9 O72,2.846,{'mp-2714262': <CalcType.GGA_Structure_Optimization: 'GGA Structure Optimization'>}
mp-2714275,Na3 In6 Ga6 P3 S15 O72,1.5270000000000001,{'mp-2714275': <CalcType.GGA_Structure_Optimization: 'GGA Structure Optimization'>}
mp-2714305,Na15 Ta6 In6 Si9 P9 O72,2.9272,{'mp-2714305': <CalcType.GGA_Structure_Optimization: 'GGA Structure Optimization'>}
mp-2714355,Na21 Sc6 Nb6 Si15 P3 O72,2.3499,{'mp-2714355': <CalcType.GGA_Structure_Optimization: 'GGA Structure Optimization'>}
mp-2714359,Na6 Y6 In6 Si3 S15 O72,0.6079,{'mp-2714359': <CalcType.GGA_Structure_Optimization: 'GGA Structure Optimization'>}
mp-2714297,Na6 Mg3 Sn9 P12 S6 O72,1.6731,{'mp-2714297': <CalcType.GGA_Structure_Optimization: 'GGA Structure Optimization'>}
mp-2714306,Na15 Ta6 Ga6 Si9 P9 O72,3.2451,{'mp-2714306': <CalcType.GGA_Structure_Optimization: 'GGA Structure Optimization'>}
mp-2714323,Na18 Ca3 Zr9 Si12 S6 O72,3.3846,{'mp-2714323': <CalcType.GGA_Structure_Optimization: 'GGA Structure Optimization'>}
mp-2714300,Na15 Hf6 Sc6 Si3 P15 O72,4.2822,{'mp-2714300': <CalcType.GGA_Structure_Optimization: 'GGA Structure Optimization'>}
mp-2714318,Na15 Nb6 Ga6 Si9 P9 O72,2.3757,{'mp-2714318': <CalcType.GGA_Structure_Optimization: 'GGA Structure Optimization'>}
mp-2714331,Na18 Nb3 Ga9 Si12 S6 O72,2.2371,{'mp-2714331': <CalcType.GGA_Structure_Optimization: 'GGA Structure Optimization'>}
mp-2714353,Na6 Ca6 Hf6 Si3 S15 O72,2.8211,{'mp-2714353': <CalcType.GGA_Structure_Optimization: 'GGA Structure Optimization'>}
mp-2714376,Na6 La6 Al6 Si3 S15 O72,3.3385,{'mp-2714376': <CalcType.GGA_Structure_Optimization: 'GGA Structure Optimization'>}
mp-2714291,Na3 Y6 Ga6 P3 S15 O72,1.601499999999999,{'mp-2714291': <CalcType.GGA_Structure_Optimization: 'GGA Structure Optimization'>}
mp-2714295,Na3 Sc6 In6 P3 S15 O72,3.0214,{'mp-2714295': <CalcType.GGA_Structure_Optimization: 'GGA Structure Optimization'>}
mp-2714320,Na15 Nb3 In9 Si3 P15 O72,2.4489,{'mp-2714320': <CalcType.GGA_Structure_Optimization: 'GGA Structure Optimization'>}
mp-2714347,Na21 Zr6 Si15 Ge6 P3 O72,3.6102,{'mp-2714347': <CalcType.GGA_Structure_Optimization: 'GGA Structure Optimization'>}
mp-2714369,Na18 Ta3 Al9 Si12 S6 O72,2.8966000000000003,{'mp-2714369': <CalcType.GGA_Structure_Optimization: 'GGA Structure Optimization'>}
mp-2714371,Na21 Nb6 Ga6 Si15 P3 O72,2.5867,{'mp-2714371': <CalcType.GGA_Structure_Optimization: 'GGA Structure Optimization'>}
mp-2714358,Na18 Ta3 Ga9 Si12 S6 O72,3.002,{'mp-2714358': <CalcType.GGA_Structure_Optimization: 'GGA Structure Optimization'>}
mp-2714316,Na21 La9 Zn3 Si9 S9 O72,3.3324,{'mp-2714316': <CalcType.GGA_Structure_Optimization: 'GGA Structure Optimization'>}
mp-2714334,Na6 Ca6 Si3 Sn6 S15 O72,0.0,{'mp-2714334': <CalcType.GGA_Structure_Optimization: 'GGA Structure Optimization'>}
mp-2714345,Na21 Ti6 Si15 Sn6 P3 O72,2.8225,{'mp-2714345': <CalcType.GGA_Structure_Optimization: 'GGA Structure Optimization'>}
mp-2714352,Na18 Ti9 Zn3 Si12 S6 O72,1.9495,{'mp-2714352': <CalcType.GGA_Structure_Optimization: 'GGA Structure Optimization'>}
mp-2714380,Na6 Sc6 Al6 Si3 S15 O72,2.956299999999999,{'mp-2714380': <CalcType.GGA_Structure_Optimization: 'GGA Structure Optimization'>}
mp-2714383,Na6 Zn6 Si3 Sn6 S15 O72,0.7411000000000001,{'mp-2714383': <CalcType.GGA_Structure_Optimization: 'GGA Structure Optimization'>}
mp-2714381,Na21 Nb6 In6 Si15 P3 O72,2.4335,{'mp-2714381': <CalcType.GGA_Structure_Optimization: 'GGA Structure Optimization'>}
mp-2714420,Na18 Y9 Nb3 Si12 S6 O72,2.1202,{'mp-2714420': <CalcType.GGA_Structure_Optimization: 'GGA Structure Optimization'>}
mp-2714439,Na21 Sc6 Ta6 Si15 P3 O72,3.1704,{'mp-2714439': <CalcType.GGA_Structure_Optimization: 'GGA Structure Optimization'>}
mp-2714409,Na18 Nb3 In9 Si12 S6 O72,2.138,{'mp-2714409': <CalcType.GGA_Structure_Optimization: 'GGA Structure Optimization'>}
mp-2714416,Na18 Ca3 Hf9 Si12 S6 O72,3.8306,{'mp-2714416': <CalcType.GGA_Structure_Optimization: 'GGA Structure Optimization'>}
mp-2714433,Na18 Ca3 Si12 Sn9 S6 O72,1.2063,{'mp-2714433': <CalcType.GGA_Structure_Optimization: 'GGA Structure Optimization'>}
mp-2714442,Na6 La6 Y6 Si3 S15 O72,3.4777,{'mp-2714442': <CalcType.GGA_Structure_Optimization: 'GGA Structure Optimization'>}
mp-2714452,Na21 Ti6 Si15 Ge6 P3 O72,2.748,{'mp-2714452': <CalcType.GGA_Structure_Optimization: 'GGA Structure Optimization'>}
mp-2714389,Na21 Zr6 Si15 Sn6 P3 O72,3.5476,{'mp-2714389': <CalcType.GGA_Structure_Optimization: 'GGA Structure Optimization'>}
mp-2714454,Na18 Mg3 Zr9 Si12 S6 O72,3.2148,{'mp-2714454': <CalcType.GGA_Structure_Optimization: 'GGA Structure Optimization'>}