Material ID,Composition,Band Gap,Calc Types
mp-2716154,Na18 Ca6 Zr6 Si9 S9 O72,1.7255,{'mp-2716154': <CalcType.GGA_Structure_Optimization: 'GGA Structure Optimization'>}
mp-2716135,Na24 Ca3 Hf9 Si15 S3 O72,3.4873,{'mp-2716135': <CalcType.GGA_Structure_Optimization: 'GGA Structure Optimization'>}
mp-2716146,Na18 Mg6 Si9 Ge6 S9 O72,0.47600000000000003,{'mp-2716146': <CalcType.GGA_Structure_Optimization: 'GGA Structure Optimization'>}
mp-2716157,Na3 Sn6 Ge6 P15 S3 O72,2.5514,{'mp-2716157': <CalcType.GGA_Structure_Optimization: 'GGA Structure Optimization'>}
mp-2716163,Na24 La9 Ta3 Si12 P6 O72,3.3467000000000002,{'mp-2716163': <CalcType.GGA_Structure_Optimization: 'GGA Structure Optimization'>}
mp-2716143,Na24 Ca3 Si12 Ge9 P6 O72,2.014199999999999,{'mp-2716143': <CalcType.GGA_Structure_Optimization: 'GGA Structure Optimization'>}
mp-2716177,Na24 Nb3 In9 Si15 S3 O72,2.286699999999999,{'mp-2716177': <CalcType.GGA_Structure_Optimization: 'GGA Structure Optimization'>}
mp-2716205,Na18 Y6 Al6 Si9 S9 O72,3.427699999999999,{'mp-2716205': <CalcType.GGA_Structure_Optimization: 'GGA Structure Optimization'>}
mp-2716169,Na24 Y9 Ta3 Si12 P6 O72,3.3631,{'mp-2716169': <CalcType.GGA_Structure_Optimization: 'GGA Structure Optimization'>}
mp-2716180,Na18 Sc6 Ga6 Si9 S9 O72,2.963599999999999,{'mp-2716180': <CalcType.GGA_Structure_Optimization: 'GGA Structure Optimization'>}
mp-2716186,Na3 Hf6 Zr6 P15 S3 O72,3.6239,{'mp-2716186': <CalcType.GGA_Structure_Optimization: 'GGA Structure Optimization'>}
mp-2716188,Na3 Ta6 Ga6 P15 S3 O72,3.332099999999999,{'mp-2716188': <CalcType.GGA_Structure_Optimization: 'GGA Structure Optimization'>}
mp-2716195,Na24 Zr6 In6 Si15 S3 O72,3.378199999999999,{'mp-2716195': <CalcType.GGA_Structure_Optimization: 'GGA Structure Optimization'>}
mp-2716197,Na24 Mg3 Si15 Sn9 S3 O72,1.633299999999999,{'mp-2716197': <CalcType.GGA_Structure_Optimization: 'GGA Structure Optimization'>}
mp-2716201,Na18 La6 Sc6 Si9 S9 O72,3.4977,{'mp-2716201': <CalcType.GGA_Structure_Optimization: 'GGA Structure Optimization'>}
mp-2716211,Na18 In6 Ga6 Si9 S9 O72,2.1024,{'mp-2716211': <CalcType.GGA_Structure_Optimization: 'GGA Structure Optimization'>}
mp-2716178,Na24 In6 Si15 Sn6 S3 O72,2.6793,{'mp-2716178': <CalcType.GGA_Structure_Optimization: 'GGA Structure Optimization'>}
mp-2716191,Na24 Ca3 Ti9 Si15 S3 O72,2.0907,{'mp-2716191': <CalcType.GGA_Structure_Optimization: 'GGA Structure Optimization'>}
mp-2716172,Na24 Nb6 Zn6 Si15 S3 O72,1.709899999999999,{'mp-2716172': <CalcType.GGA_Structure_Optimization: 'GGA Structure Optimization'>}
mp-2716176,Na24 Zr9 Zn3 Si12 P6 O72,3.5845000000000002,{'mp-2716176': <CalcType.GGA_Structure_Optimization: 'GGA Structure Optimization'>}
mp-2716203,Na3 Ta6 In6 P15 S3 O72,3.0136,{'mp-2716203': <CalcType.GGA_Structure_Optimization: 'GGA Structure Optimization'>}
mp-2716166,Na24 Y6 Ti6 Si15 S3 O72,2.6679,{'mp-2716166': <CalcType.GGA_Structure_Optimization: 'GGA Structure Optimization'>}
mp-2716167,Na24 Ti9 Zn3 Si15 S3 O72,2.0555,{'mp-2716167': <CalcType.GGA_Structure_Optimization: 'GGA Structure Optimization'>}
mp-2716198,Na18 Ca6 Hf6 Si9 S9 O72,2.6026,{'mp-2716198': <CalcType.GGA_Structure_Optimization: 'GGA Structure Optimization'>}
mp-2716171,Na24 Ca6 Nb6 Si15 S3 O72,1.8646999999999991,{'mp-2716171': <CalcType.GGA_Structure_Optimization: 'GGA Structure Optimization'>}
mp-2716189,Na3 Sc6 Ta6 P15 S3 O72,3.147999999999999,{'mp-2716189': <CalcType.GGA_Structure_Optimization: 'GGA Structure Optimization'>}
mp-2716200,Na18 La6 Ga6 Si9 S9 O72,2.6708,{'mp-2716200': <CalcType.GGA_Structure_Optimization: 'GGA Structure Optimization'>}
mp-2716181,Na3 Zr6 Ge6 P15 S3 O72,2.570699999999999,{'mp-2716181': <CalcType.GGA_Structure_Optimization: 'GGA Structure Optimization'>}
mp-2716190,Na18 Hf6 Mg6 Si9 S9 O72,2.5826000000000002,{'mp-2716190': <CalcType.GGA_Structure_Optimization: 'GGA Structure Optimization'>}
mp-2716194,Na18 Sc6 In6 Si9 S9 O72,2.0716,{'mp-2716194': <CalcType.GGA_Structure_Optimization: 'GGA Structure Optimization'>}
mp-2716202,Na3 Nb6 Al6 P15 S3 O72,2.3299,{'mp-2716202': <CalcType.GGA_Structure_Optimization: 'GGA Structure Optimization'>}
mp-2716222,Na18 Y6 Sc6 Si9 S9 O72,3.5915,{'mp-2716222': <CalcType.GGA_Structure_Optimization: 'GGA Structure Optimization'>}
mp-2716213,Na24 Mg3 Ti9 Si12 P6 O72,2.2329,{'mp-2716213': <CalcType.GGA_Structure_Optimization: 'GGA Structure Optimization'>}
mp-2716220,Na3 Hf6 Sn6 P15 S3 O72,2.0104,{'mp-2716220': <CalcType.GGA_Structure_Optimization: 'GGA Structure Optimization'>}
mp-2716221,Na18 Ca6 Ti6 Si9 S9 O72,0.37460000000000004,{'mp-2716221': <CalcType.GGA_Structure_Optimization: 'GGA Structure Optimization'>}
mp-2716219,Na18 Zn6 Si9 Ge6 S9 O72,0.17649999999999902,{'mp-2716219': <CalcType.GGA_Structure_Optimization: 'GGA Structure Optimization'>}
mp-2716215,Na3 Ti6 Sn6 P15 S3 O72,1.9641000000000002,{'mp-2716215': <CalcType.GGA_Structure_Optimization: 'GGA Structure Optimization'>}
mp-2716216,Na3 Sc6 Nb6 P15 S3 O72,2.3373,{'mp-2716216': <CalcType.GGA_Structure_Optimization: 'GGA Structure Optimization'>}
mp-2716240,Na3 La6 Nb6 P15 S3 O72,2.069099999999999,{'mp-2716240': <CalcType.GGA_Structure_Optimization: 'GGA Structure Optimization'>}
mp-2716244,Na24 Sc6 Si15 Ge6 S3 O72,2.8388,{'mp-2716244': <CalcType.GGA_Structure_Optimization: 'GGA Structure Optimization'>}
mp-2716248,Na18 Ca6 Si9 Sn6 S9 O72,0.0,{'mp-2716248': <CalcType.GGA_Structure_Optimization: 'GGA Structure Optimization'>}
mp-2716226,Na24 Hf9 Mg3 Si15 S3 O72,3.5798,{'mp-2716226': <CalcType.GGA_Structure_Optimization: 'GGA Structure Optimization'>}
mp-2716237,Na24 Mg3 Zr9 Si12 P6 O72,3.5269999999999992,{'mp-2716237': <CalcType.GGA_Structure_Optimization: 'GGA Structure Optimization'>}
mp-2716245,Na3 Zr6 Ti6 P15 S3 O72,2.3144,{'mp-2716245': <CalcType.GGA_Structure_Optimization: 'GGA Structure Optimization'>}
mp-2716247,Na24 Zr6 Sc6 Si15 S3 O72,4.0034,{'mp-2716247': <CalcType.GGA_Structure_Optimization: 'GGA Structure Optimization'>}
mp-2716228,Na3 Y6 Ta6 P15 S3 O72,2.9072,{'mp-2716228': <CalcType.GGA_Structure_Optimization: 'GGA Structure Optimization'>}
mp-2716229,Na18 Y6 In6 Si9 S9 O72,2.0053,{'mp-2716229': <CalcType.GGA_Structure_Optimization: 'GGA Structure Optimization'>}
mp-2716230,Na18 Al6 Ga6 Si9 S9 O72,3.0915,{'mp-2716230': <CalcType.GGA_Structure_Optimization: 'GGA Structure Optimization'>}
mp-2716225,Na24 Ga6 Si15 Sn6 S3 O72,2.9878,{'mp-2716225': <CalcType.GGA_Structure_Optimization: 'GGA Structure Optimization'>}
mp-2716241,Na24 Nb3 Ga9 Si12 P6 O72,2.4301999999999992,{'mp-2716241': <CalcType.GGA_Structure_Optimization: 'GGA Structure Optimization'>}
mp-2716246,Na24 Nb3 In9 Si12 P6 O72,2.5101,{'mp-2716246': <CalcType.GGA_Structure_Optimization: 'GGA Structure Optimization'>}
mp-2716249,Na3 Zr6 Sn6 P15 S3 O72,2.9901,{'mp-2716249': <CalcType.GGA_Structure_Optimization: 'GGA Structure Optimization'>}
mp-2716231,Na3 Hf6 Ti6 P15 S3 O72,2.0477,{'mp-2716231': <CalcType.GGA_Structure_Optimization: 'GGA Structure Optimization'>}
mp-2716239,Na3 Hf6 Ge6 P15 S3 O72,1.7271,{'mp-2716239': <CalcType.GGA_Structure_Optimization: 'GGA Structure Optimization'>}
mp-2716243,Na24 Ca3 Zr9 Si15 S3 O72,3.618799999999999,{'mp-2716243': <CalcType.GGA_Structure_Optimization: 'GGA Structure Optimization'>}
mp-2716250,Na18 Ti6 Zn6 Si9 S9 O72,0.28989999999999905,{'mp-2716250': <CalcType.GGA_Structure_Optimization: 'GGA Structure Optimization'>}
mp-2716266,Na18 Y6 Ga6 Si9 S9 O72,2.6845,{'mp-2716266': <CalcType.GGA_Structure_Optimization: 'GGA Structure Optimization'>}
mp-2716267,Na18 La6 Al6 Si9 S9 O72,3.52,{'mp-2716267': <CalcType.GGA_Structure_Optimization: 'GGA Structure Optimization'>}
mp-2716269,Na3 La6 Ta6 P15 S3 O72,2.822899999999999,{'mp-2716269': <CalcType.GGA_Structure_Optimization: 'GGA Structure Optimization'>}
mp-2716270,Na18 Ca6 Si9 Ge6 S9 O72,0.0,{'mp-2716270': <CalcType.GGA_Structure_Optimization: 'GGA Structure Optimization'>}
mp-2716263,Na3 Y6 Nb6 P15 S3 O72,2.1422,{'mp-2716263': <CalcType.GGA_Structure_Optimization: 'GGA Structure Optimization'>}
mp-2716251,Na18 Hf6 Zn6 Si9 S9 O72,2.500099999999999,{'mp-2716251': <CalcType.GGA_Structure_Optimization: 'GGA Structure Optimization'>}
mp-2716259,Na18 Mg6 Si9 Sn6 S9 O72,0.7509999999999991,{'mp-2716259': <CalcType.GGA_Structure_Optimization: 'GGA Structure Optimization'>}
mp-2716274,Na18 Zr6 Zn6 Si9 S9 O72,1.8169,{'mp-2716274': <CalcType.GGA_Structure_Optimization: 'GGA Structure Optimization'>}
mp-2716272,Na24 Ca3 Si15 Ge9 S3 O72,1.6537000000000002,{'mp-2716272': <CalcType.GGA_Structure_Optimization: 'GGA Structure Optimization'>}
mp-2716273,Na24 La6 Ti6 Si15 S3 O72,2.3899,{'mp-2716273': <CalcType.GGA_Structure_Optimization: 'GGA Structure Optimization'>}
mp-2716288,Na3 Zr6 Sc6 P9 S9 O72,3.3873,{'mp-2716288': <CalcType.GGA_Structure_Optimization: 'GGA Structure Optimization'>}
mp-2716252,Na24 Hf6 In6 Si15 S3 O72,2.9279,{'mp-2716252': <CalcType.GGA_Structure_Optimization: 'GGA Structure Optimization'>}
mp-2716280,Na3 Ta3 In9 P9 S9 O72,2.7546,{'mp-2716280': <CalcType.GGA_Structure_Optimization: 'GGA Structure Optimization'>}
mp-2716284,Na3 Y6 Ge6 P9 S9 O72,1.7689,{'mp-2716284': <CalcType.GGA_Structure_Optimization: 'GGA Structure Optimization'>}
mp-2716287,Na15 Ga9 Si9 Ge3 S9 O72,2.455,{'mp-2716287': <CalcType.GGA_Structure_Optimization: 'GGA Structure Optimization'>}
mp-2716255,Na24 Ta3 Ga9 Si12 P6 O72,3.1776,{'mp-2716255': <CalcType.GGA_Structure_Optimization: 'GGA Structure Optimization'>}
mp-2716264,Na24 Y9 Nb3 Si15 S3 O72,2.6197,{'mp-2716264': <CalcType.GGA_Structure_Optimization: 'GGA Structure Optimization'>}
mp-2716277,Na3 Nb6 In6 P15 S3 O72,2.2939,{'mp-2716277': <CalcType.GGA_Structure_Optimization: 'GGA Structure Optimization'>}
mp-2716289,Na3 Hf6 In6 P9 S9 O72,2.5813,{'mp-2716289': <CalcType.GGA_Structure_Optimization: 'GGA Structure Optimization'>}
mp-2716294,Na3 Y6 Sn6 P9 S9 O72,1.7546,{'mp-2716294': <CalcType.GGA_Structure_Optimization: 'GGA Structure Optimization'>}
mp-2716297,Na3 Hf6 Al6 P9 S9 O72,3.910999999999999,{'mp-2716297': <CalcType.GGA_Structure_Optimization: 'GGA Structure Optimization'>}
mp-2716302,Na3 In6 Ge6 P9 S9 O72,1.5357999999999992,{'mp-2716302': <CalcType.GGA_Structure_Optimization: 'GGA Structure Optimization'>}
mp-2716305,Na3 Zn3 Sn9 P9 S9 O72,2.2952,{'mp-2716305': <CalcType.GGA_Structure_Optimization: 'GGA Structure Optimization'>}
mp-2716256,Na24 Ti6 Ga6 Si15 S3 O72,2.8173999999999992,{'mp-2716256': <CalcType.GGA_Structure_Optimization: 'GGA Structure Optimization'>}
mp-2716281,Na15 Ta9 In3 Si15 P3 O72,3.3076,{'mp-2716281': <CalcType.GGA_Structure_Optimization: 'GGA Structure Optimization'>}
mp-2716268,Na18 Mg6 Zr6 Si9 S9 O72,1.81,{'mp-2716268': <CalcType.GGA_Structure_Optimization: 'GGA Structure Optimization'>}
mp-2716304,Na15 Ta9 Ga3 Si15 P3 O72,3.343499999999999,{'mp-2716304': <CalcType.GGA_Structure_Optimization: 'GGA Structure Optimization'>}
mp-2716324,Na15 Zr6 Ta6 Si15 P3 O72,3.4234,{'mp-2716324': <CalcType.GGA_Structure_Optimization: 'GGA Structure Optimization'>}
mp-2716312,Na15 Y9 Zr3 Si9 S9 O72,3.0902,{'mp-2716312': <CalcType.GGA_Structure_Optimization: 'GGA Structure Optimization'>}
mp-2716314,Na3 Zn3 Ge9 P9 S9 O72,2.3246,{'mp-2716314': <CalcType.GGA_Structure_Optimization: 'GGA Structure Optimization'>}
mp-2716326,Na3 Ca6 Ta6 P9 S9 O72,2.0407,{'mp-2716326': <CalcType.GGA_Structure_Optimization: 'GGA Structure Optimization'>}
mp-2716327,Na15 Ti3 In9 Si9 S9 O72,1.8518,{'mp-2716327': <CalcType.GGA_Structure_Optimization: 'GGA Structure Optimization'>}
mp-2716331,Na3 Zr6 Ga6 P9 S9 O72,3.2018,{'mp-2716331': <CalcType.GGA_Structure_Optimization: 'GGA Structure Optimization'>}
mp-2716316,Na15 Y3 Ta9 Si15 P3 O72,3.278799999999999,{'mp-2716316': <CalcType.GGA_Structure_Optimization: 'GGA Structure Optimization'>}
mp-2716322,Na3 Al6 Sn6 P9 S9 O72,2.3537,{'mp-2716322': <CalcType.GGA_Structure_Optimization: 'GGA Structure Optimization'>}
mp-2716328,Na15 Nb6 Si15 Sn6 P3 O72,2.498599999999999,{'mp-2716328': <CalcType.GGA_Structure_Optimization: 'GGA Structure Optimization'>}
mp-2716334,Na15 Hf3 Sc9 Si9 S9 O72,3.742099999999999,{'mp-2716334': <CalcType.GGA_Structure_Optimization: 'GGA Structure Optimization'>}
mp-2716351,Na3 Sc6 Sn6 P9 S9 O72,2.2335,{'mp-2716351': <CalcType.GGA_Structure_Optimization: 'GGA Structure Optimization'>}
mp-2716352,Na3 In6 Sn6 P9 S9 O72,1.6465,{'mp-2716352': <CalcType.GGA_Structure_Optimization: 'GGA Structure Optimization'>}
mp-2716342,Na3 Y6 Ti6 P9 S9 O72,2.1228,{'mp-2716342': <CalcType.GGA_Structure_Optimization: 'GGA Structure Optimization'>}
mp-2716357,Na3 Hf9 Mg3 P9 S9 O72,4.4106,{'mp-2716357': <CalcType.GGA_Structure_Optimization: 'GGA Structure Optimization'>}
mp-2716332,Na15 Hf3 Al9 Si9 S9 O72,3.7655000000000003,{'mp-2716332': <CalcType.GGA_Structure_Optimization: 'GGA Structure Optimization'>}
mp-2716372,Na3 La9 Ta3 P9 S9 O72,2.9412000000000003,{'mp-2716372': <CalcType.GGA_Structure_Optimization: 'GGA Structure Optimization'>}
mp-2716354,Na3 Ca3 Zr9 P9 S9 O72,3.6033,{'mp-2716354': <CalcType.GGA_Structure_Optimization: 'GGA Structure Optimization'>}
mp-2716335,Na15 Y3 Nb9 Si15 P3 O72,2.4655,{'mp-2716335': <CalcType.GGA_Structure_Optimization: 'GGA Structure Optimization'>}
mp-2716348,Na3 La9 Nb3 P9 S9 O72,2.1578,{'mp-2716348': <CalcType.GGA_Structure_Optimization: 'GGA Structure Optimization'>}
mp-2716359,Na15 La3 Ta9 Si15 P3 O72,3.1081,{'mp-2716359': <CalcType.GGA_Structure_Optimization: 'GGA Structure Optimization'>}
mp-2716370,Na3 Ca3 Ti9 P9 S9 O72,2.0862,{'mp-2716370': <CalcType.GGA_Structure_Optimization: 'GGA Structure Optimization'>}
mp-2716337,Na3 La6 Sn6 P9 S9 O72,1.6198000000000001,{'mp-2716337': <CalcType.GGA_Structure_Optimization: 'GGA Structure Optimization'>}
mp-2716358,Na3 Ga6 Sn6 P9 S9 O72,2.066,{'mp-2716358': <CalcType.GGA_Structure_Optimization: 'GGA Structure Optimization'>}
mp-2716425,Na3 Ca3 Hf9 P9 S9 O72,4.433,{'mp-2716425': <CalcType.GGA_Structure_Optimization: 'GGA Structure Optimization'>}
mp-2716426,Na15 Hf6 Ta6 Si15 P3 O72,3.407799999999999,{'mp-2716426': <CalcType.GGA_Structure_Optimization: 'GGA Structure Optimization'>}
mp-2716374,Na3 Ga6 Ge6 P9 S9 O72,2.0205,{'mp-2716374': <CalcType.GGA_Structure_Optimization: 'GGA Structure Optimization'>}
mp-2716375,Na3 Ca6 Nb6 P9 S9 O72,1.4333,{'mp-2716375': <CalcType.GGA_Structure_Optimization: 'GGA Structure Optimization'>}
mp-2716431,Na3 Al6 Ge6 P9 S9 O72,2.3507,{'mp-2716431': <CalcType.GGA_Structure_Optimization: 'GGA Structure Optimization'>}
mp-2716373,Na9 In3 Si9 Sn9 S9 O72,1.8754,{'mp-2716373': <CalcType.GGA_Structure_Optimization: 'GGA Structure Optimization'>}
mp-2716377,Na3 Nb3 Al9 P9 S9 O72,2.0304,{'mp-2716377': <CalcType.GGA_Structure_Optimization: 'GGA Structure Optimization'>}
mp-2716379,Na15 Hf6 Nb6 Si15 P3 O72,2.5382,{'mp-2716379': <CalcType.GGA_Structure_Optimization: 'GGA Structure Optimization'>}
mp-2716385,Na3 Zr6 Al6 P9 S9 O72,3.1224,{'mp-2716385': <CalcType.GGA_Structure_Optimization: 'GGA Structure Optimization'>}
mp-2716428,Na3 Nb6 Zn6 P9 S9 O72,1.3854,{'mp-2716428': <CalcType.GGA_Structure_Optimization: 'GGA Structure Optimization'>}
mp-2716441,Na3 Mg3 Ge9 P9 S9 O72,2.353799999999999,{'mp-2716441': <CalcType.GGA_Structure_Optimization: 'GGA Structure Optimization'>}
mp-2716394,Na3 Sc6 Ti6 P9 S9 O72,2.0443,{'mp-2716394': <CalcType.GGA_Structure_Optimization: 'GGA Structure Optimization'>}
mp-2716413,Na3 La6 Ti6 P9 S9 O72,1.955299999999999,{'mp-2716413': <CalcType.GGA_Structure_Optimization: 'GGA Structure Optimization'>}
mp-2716416,Na3 Hf6 Ga6 P9 S9 O72,3.692599999999999,{'mp-2716416': <CalcType.GGA_Structure_Optimization: 'GGA Structure Optimization'>}
mp-2716403,Na3 La6 Zr6 P9 S9 O72,3.2452,{'mp-2716403': <CalcType.GGA_Structure_Optimization: 'GGA Structure Optimization'>}
mp-2716404,Na15 Sc3 Ta9 Si15 P3 O72,3.215,{'mp-2716404': <CalcType.GGA_Structure_Optimization: 'GGA Structure Optimization'>}
mp-2716410,Na3 Ta3 Ga9 P9 S9 O72,2.8189,{'mp-2716410': <CalcType.GGA_Structure_Optimization: 'GGA Structure Optimization'>}
mp-2716430,Na3 Nb3 Ga9 P9 S9 O72,2.1227,{'mp-2716430': <CalcType.GGA_Structure_Optimization: 'GGA Structure Optimization'>}
mp-2716444,Na3 Mg3 Sn9 P9 S9 O72,2.373,{'mp-2716444': <CalcType.GGA_Structure_Optimization: 'GGA Structure Optimization'>}
mp-2716446,Na3 Ti9 Zn3 P9 S9 O72,2.19,{'mp-2716446': <CalcType.GGA_Structure_Optimization: 'GGA Structure Optimization'>}
mp-2716447,Na15 Y9 Si9 Sn3 S9 O72,1.9404000000000001,{'mp-2716447': <CalcType.GGA_Structure_Optimization: 'GGA Structure Optimization'>}
mp-2716449,Na15 Ta6 Si15 Sn6 P3 O72,3.1268,{'mp-2716449': <CalcType.GGA_Structure_Optimization: 'GGA Structure Optimization'>}
mp-2716432,Na15 Hf3 Ga9 Si9 S9 O72,2.9983,{'mp-2716432': <CalcType.GGA_Structure_Optimization: 'GGA Structure Optimization'>}
mp-2716436,Na3 Ti6 Ga6 P9 S9 O72,1.8737,{'mp-2716436': <CalcType.GGA_Structure_Optimization: 'GGA Structure Optimization'>}
mp-2716390,Na15 Ta9 Al3 Si15 P3 O72,3.1862,{'mp-2716390': <CalcType.GGA_Structure_Optimization: 'GGA Structure Optimization'>}
mp-2716407,Na9 Sc3 Si9 Sn9 S9 O72,1.9944000000000002,{'mp-2716407': <CalcType.GGA_Structure_Optimization: 'GGA Structure Optimization'>}
mp-2716429,Na3 Nb3 In9 P9 S9 O72,1.561,{'mp-2716429': <CalcType.GGA_Structure_Optimization: 'GGA Structure Optimization'>}
mp-2716445,Na15 La3 Nb9 Si15 P3 O72,2.249399999999999,{'mp-2716445': <CalcType.GGA_Structure_Optimization: 'GGA Structure Optimization'>}
mp-2716453,Na3 Ca3 Sn9 P9 S9 O72,2.005,{'mp-2716453': <CalcType.GGA_Structure_Optimization: 'GGA Structure Optimization'>}
mp-2716454,Na3 Mg6 Ta6 P9 S9 O72,2.104,{'mp-2716454': <CalcType.GGA_Structure_Optimization: 'GGA Structure Optimization'>}
mp-2716455,Na15 La9 Si9 Ge3 S9 O72,1.9675,{'mp-2716455': <CalcType.GGA_Structure_Optimization: 'GGA Structure Optimization'>}
mp-2716480,Na3 Hf6 Sc6 P9 S9 O72,3.7115,{'mp-2716480': <CalcType.GGA_Structure_Optimization: 'GGA Structure Optimization'>}
mp-2716494,Na3 Zr6 In6 P9 S9 O72,3.1551,{'mp-2716494': <CalcType.GGA_Structure_Optimization: 'GGA Structure Optimization'>}
mp-2716467,Na3 Ta6 Zn6 P9 S9 O72,2.0073,{'mp-2716467': <CalcType.GGA_Structure_Optimization: 'GGA Structure Optimization'>}
mp-2716472,Na3 Y9 Nb3 P9 S9 O72,2.137499999999999,{'mp-2716472': <CalcType.GGA_Structure_Optimization: 'GGA Structure Optimization'>}
mp-2716468,Na3 Sc6 Ge6 P9 S9 O72,2.0515,{'mp-2716468': <CalcType.GGA_Structure_Optimization: 'GGA Structure Optimization'>}
mp-2716487,Na15 Sc3 Nb9 Si15 P3 O72,2.4175,{'mp-2716487': <CalcType.GGA_Structure_Optimization: 'GGA Structure Optimization'>}
mp-2716483,Na3 Ta3 Al9 P9 S9 O72,2.8124000000000002,{'mp-2716483': <CalcType.GGA_Structure_Optimization: 'GGA Structure Optimization'>}
mp-2716485,Na15 Zr3 Ga9 Si9 S9 O72,3.049699999999999,{'mp-2716485': <CalcType.GGA_Structure_Optimization: 'GGA Structure Optimization'>}
mp-2716481,Na15 Nb9 Al3 Si15 P3 O72,2.457,{'mp-2716481': <CalcType.GGA_Structure_Optimization: 'GGA Structure Optimization'>}
mp-2716548,Na3 Zr9 Zn3 P9 S9 O72,3.7254,{'mp-2716548': <CalcType.GGA_Structure_Optimization: 'GGA Structure Optimization'>}
mp-2716556,Na3 Ti6 Al6 P9 S9 O72,1.8803,{'mp-2716556': <CalcType.GGA_Structure_Optimization: 'GGA Structure Optimization'>}
mp-2716533,Na3 Ti6 In6 P9 S9 O72,2.0322,{'mp-2716533': <CalcType.GGA_Structure_Optimization: 'GGA Structure Optimization'>}
mp-2716541,Na15 Sc9 Si9 Sn3 S9 O72,2.5133,{'mp-2716541': <CalcType.GGA_Structure_Optimization: 'GGA Structure Optimization'>}
mp-2716572,Na3 Y9 Ta3 P9 S9 O72,2.7473,{'mp-2716572': <CalcType.GGA_Structure_Optimization: 'GGA Structure Optimization'>}
mp-2716532,Na3 Mg6 Nb6 P9 S9 O72,1.456299999999999,{'mp-2716532': <CalcType.GGA_Structure_Optimization: 'GGA Structure Optimization'>}
mp-2716536,Na3 La6 Hf6 P9 S9 O72,3.7713,{'mp-2716536': <CalcType.GGA_Structure_Optimization: 'GGA Structure Optimization'>}
mp-2716559,Na15 Ti3 Al9 Si9 S9 O72,1.7417,{'mp-2716559': <CalcType.GGA_Structure_Optimization: 'GGA Structure Optimization'>}