Material ID,Composition,Band Gap,Calc Types
mp-642804,K1 Cu2 P2 H3 O8 F2,0.35239999999999905,"{'mp-992480': <CalcType.GGA_Static: 'GGA Static'>, 'mp-992727': <CalcType.GGA_NSCF_Line: 'GGA NSCF Line'>, 'mp-642804': <CalcType.GGA_Structure_Optimization: 'GGA Structure Optimization'>, 'mp-1048957': <CalcType.GGA_Static: 'GGA Static'>, 'mp-1049017': <CalcType.GGA_NSCF_Line: 'GGA NSCF Line'>, 'mp-1423858': <CalcType.GGA_Static: 'GGA Static'>, 'mp-1669714': <CalcType.GGA_NSCF_Uniform: 'GGA NSCF Uniform'>, 'mp-1788774': <CalcType.GGA_Static: 'GGA Static'>, 'mp-994179': <CalcType.GGA_NSCF_Line: 'GGA NSCF Line'>, 'mp-1598047': <CalcType.GGA_NSCF_Line: 'GGA NSCF Line'>, 'mp-1048975': <CalcType.GGA_NSCF_Line: 'GGA NSCF Line'>, 'mp-2182790': <CalcType.GGA_NSCF_Line: 'GGA NSCF Line'>, 'mp-2712452': <CalcType.GGA_NSCF_Line: 'GGA NSCF Line'>}"
mp-696851,Zn2 H24 C4 S4 N12 O16,4.6103000000000005,"{'mp-731870': <CalcType.GGA_Static: 'GGA Static'>, 'mp-696851': <CalcType.GGA_Structure_Optimization: 'GGA Structure Optimization'>, 'mp-742906': <CalcType.GGA_NSCF_Line: 'GGA NSCF Line'>, 'mp-1195851': <CalcType.GGA_Structure_Optimization: 'GGA Structure Optimization'>, 'mp-1355813': <CalcType.GGA_Static: 'GGA Static'>, 'mp-1890671': <CalcType.GGA_Static: 'GGA Static'>, 'mp-749326': <CalcType.GGA_NSCF_Line: 'GGA NSCF Line'>}"
mp-2232379,Sr2 Sm1 Mg1 Ta1 Cu2 O8,0.0,"{'mp-2232379': <CalcType.GGA_Static: 'GGA Static'>, 'mp-2232422': <CalcType.GGA_Structure_Optimization: 'GGA Structure Optimization'>}"
mp-2232323,Ba2 Nd1 Mg1 Nb1 Cu2 O8,0.0,"{'mp-2232559': <CalcType.GGA_Structure_Optimization: 'GGA Structure Optimization'>, 'mp-2232323': <CalcType.GGA_Static: 'GGA Static'>}"
mp-2240990,Sr2 Gd1 Mg1 Cu2 Ru1 O8,0.0,"{'mp-2240990': <CalcType.GGA_Structure_Optimization: 'GGA Structure Optimization'>, 'mp-2241320': <CalcType.GGA_Static: 'GGA Static'>}"
mp-2232457,Ba2 La1 Mg1 Ta1 Cu2 O8,0.0,"{'mp-2232457': <CalcType.GGA_Static: 'GGA Static'>, 'mp-2232537': <CalcType.GGA_Structure_Optimization: 'GGA Structure Optimization'>}"
mp-1198292,Nd2 H48 C8 I6 N16 O16,4.0563,"{'mp-1198292': <CalcType.GGA_Structure_Optimization: 'GGA Structure Optimization'>, 'mp-1238645': <CalcType.GGA_Structure_Optimization: 'GGA Structure Optimization'>, 'mp-1328222': <CalcType.GGA_Static: 'GGA Static'>, 'mp-1848701': <CalcType.GGA_Static: 'GGA Static'>, 'mp-1583645': <CalcType.GGA_NSCF_Line: 'GGA NSCF Line'>}"
mp-555299,Sr2 C8 S8 N4 O16 F24,6.2686,"{'mp-680632': <CalcType.GGA_NSCF_Line: 'GGA NSCF Line'>, 'mp-555299': <CalcType.GGA_Structure_Optimization: 'GGA Structure Optimization'>, 'mp-665484': <CalcType.GGA_Static: 'GGA Static'>, 'mp-1380320': <CalcType.GGA_Static: 'GGA Static'>, 'mp-1873670': <CalcType.GGA_Static: 'GGA Static'>, 'mp-1000057': <CalcType.GGA_NSCF_Line: 'GGA NSCF Line'>}"
mp-1194811,U4 Ag8 P8 H8 C4 O32,1.352299999999999,"{'mp-1194811': <CalcType.GGA_Structure_Optimization: 'GGA Structure Optimization'>, 'mp-1878046': <CalcType.GGA_Static: 'GGA Static'>, 'mp-1983074': <CalcType.GGA_Static: 'GGA Static'>}"
mp-1196281,U4 H64 C24 Se4 N16 O32,1.4899,"{'mp-1196281': <CalcType.GGA_Structure_Optimization: 'GGA Structure Optimization'>, 'mp-1336205': <CalcType.GGA_Static: 'GGA Static'>}"
mp-1196580,Al4 Co4 P8 C8 N8 O32,0.3982,"{'mp-1196580': <CalcType.GGA_U_Structure_Optimization: 'GGA+U Structure Optimization'>, 'mp-1379028': <CalcType.GGA_U_Static: 'GGA+U Static'>, 'mp-1849032': <CalcType.GGA_U_Static: 'GGA+U Static'>}"
mp-1197156,Ni2 H40 C24 S4 N4 O16,2.5194,"{'mp-1197156': <CalcType.GGA_U_Structure_Optimization: 'GGA+U Structure Optimization'>, 'mp-1329831': <CalcType.GGA_U_Static: 'GGA+U Static'>, 'mp-1880053': <CalcType.GGA_U_Static: 'GGA+U Static'>}"
mp-1199371,Ga4 P8 H60 C20 N8 O32,4.5686,"{'mp-1199371': <CalcType.GGA_Structure_Optimization: 'GGA Structure Optimization'>, 'mp-1336585': <CalcType.GGA_Static: 'GGA Static'>}"
mp-1199663,Cr8 Co4 H80 N24 Cl4 O32,2.621,"{'mp-1199663': <CalcType.GGA_U_Structure_Optimization: 'GGA+U Structure Optimization'>, 'mp-1335322': <CalcType.GGA_U_Static: 'GGA+U Static'>}"
mp-1200002,U4 P8 H32 C8 N4 O32,0.04020000000000001,"{'mp-1200002': <CalcType.GGA_Structure_Optimization: 'GGA Structure Optimization'>, 'mp-1845310': <CalcType.GGA_Static: 'GGA Static'>, 'mp-1987843': <CalcType.GGA_Static: 'GGA Static'>}"
mp-1199733,Ir4 C4 S4 N24 Cl8 O32,0.0,"{'mp-1199733': <CalcType.GGA_Structure_Optimization: 'GGA Structure Optimization'>, 'mp-1238682': <CalcType.GGA_Structure_Optimization: 'GGA Structure Optimization'>, 'mp-1325578': <CalcType.GGA_Static: 'GGA Static'>}"
mp-1202135,H96 Pt2 C64 S8 N12 O16,1.6568,{'mp-1202135': <CalcType.GGA_Structure_Optimization: 'GGA Structure Optimization'>}
mp-1202524,K4 Cu2 H28 C8 N12 O16,1.094199999999999,"{'mp-1202524': <CalcType.GGA_Structure_Optimization: 'GGA Structure Optimization'>, 'mp-1359325': <CalcType.GGA_Static: 'GGA Static'>, 'mp-1892187': <CalcType.GGA_Static: 'GGA Static'>}"
mp-1205162,Np4 Cr4 H32 C8 N16 O32,0.3299,"{'mp-1205162': <CalcType.GGA_U_Structure_Optimization: 'GGA+U Structure Optimization'>, 'mp-1238109': <CalcType.GGA_U_Structure_Optimization: 'GGA+U Structure Optimization'>, 'mp-1327919': <CalcType.GGA_U_Static: 'GGA+U Static'>, 'mp-1847329': <CalcType.GGA_U_Static: 'GGA+U Static'>}"
mp-1210430,Na8 Zr4 Fe4 Si8 O32 F4,2.8616,"{'mp-1210430': <CalcType.GGA_U_Structure_Optimization: 'GGA+U Structure Optimization'>, 'mp-1324600': <CalcType.GGA_U_Static: 'GGA+U Static'>, 'mp-1884331': <CalcType.GGA_U_Static: 'GGA+U Static'>}"
mp-1212185,K8 U4 C8 S8 N4 O32,1.3998,"{'mp-1212185': <CalcType.GGA_Structure_Optimization: 'GGA Structure Optimization'>, 'mp-1849045': <CalcType.GGA_Static: 'GGA Static'>}"
mp-1212545,Na12 P4 H12 S8 N12 O32,0.735,"{'mp-1212545': <CalcType.GGA_Structure_Optimization: 'GGA Structure Optimization'>, 'mp-1236863': <CalcType.GGA_Structure_Optimization: 'GGA Structure Optimization'>, 'mp-1331189': <CalcType.GGA_Static: 'GGA Static'>, 'mp-1844453': <CalcType.GGA_Static: 'GGA Static'>}"
mp-1215040,Cd2 Re4 C8 S8 N16 O16,0.4839,"{'mp-1215040': <CalcType.GGA_Structure_Optimization: 'GGA Structure Optimization'>, 'mp-1327274': <CalcType.GGA_Static: 'GGA Static'>, 'mp-1850424': <CalcType.GGA_Static: 'GGA Static'>}"
mp-1219942,Sr8 Y4 Cu8 Bi4 Pb4 O32,0.0,"{'mp-1219942': <CalcType.GGA_Structure_Optimization: 'GGA Structure Optimization'>, 'mp-1364690': <CalcType.GGA_Static: 'GGA Static'>, 'mp-1655767': <CalcType.GGA_Static: 'GGA Static'>, 'mp-1847853': <CalcType.GGA_Static: 'GGA Static'>}"
mp-557822,H48 Pb4 C16 S16 N8 O32,4.6782,"{'mp-665615': <CalcType.GGA_NSCF_Line: 'GGA NSCF Line'>, 'mp-680906': <CalcType.GGA_NSCF_Line: 'GGA NSCF Line'>, 'mp-657852': <CalcType.GGA_Static: 'GGA Static'>, 'mp-557822': <CalcType.GGA_Structure_Optimization: 'GGA Structure Optimization'>, 'mp-1365850': <CalcType.GGA_Static: 'GGA Static'>}"
mp-558267,Na4 Li4 Si4 B12 H4 O32,5.445699999999999,"{'mp-658086': <CalcType.GGA_Static: 'GGA Static'>, 'mp-666508': <CalcType.GGA_NSCF_Line: 'GGA NSCF Line'>, 'mp-681929': <CalcType.GGA_NSCF_Line: 'GGA NSCF Line'>, 'mp-558267': <CalcType.GGA_Structure_Optimization: 'GGA Structure Optimization'>, 'mp-1133970': <CalcType.GGA_Structure_Optimization: 'GGA Structure Optimization'>, 'mp-1251068': <CalcType.GGA_Structure_Optimization: 'GGA Structure Optimization'>, 'mp-1262144': <CalcType.GGA_NMR_Electric_Field_Gradient: 'GGA NMR Electric Field Gradient'>, 'mp-1268029': <CalcType.GGA_NMR_Nuclear_Shielding: 'GGA NMR Nuclear Shielding'>, 'mp-1358116': <CalcType.GGA_Static: 'GGA Static'>, 'mp-1904140': <CalcType.GGA_Static: 'GGA Static'>}"
mp-560084,Ni4 As8 S24 N16 O32 F64,3.0622,"{'mp-841318': <CalcType.GGA_Static: 'GGA Static'>, 'mp-1334224': <CalcType.GGA_U_Static: 'GGA+U Static'>, 'mp-731490': <CalcType.GGA_U_Static: 'GGA+U Static'>, 'mp-648710': <CalcType.GGA_U_Structure_Optimization: 'GGA+U Structure Optimization'>, 'mp-848472': <CalcType.GGA_U_NSCF_Line: 'GGA+U NSCF Line'>, 'mp-581265': <CalcType.GGA_U_Structure_Optimization: 'GGA+U Structure Optimization'>, 'mp-560084': <CalcType.GGA_Structure_Optimization: 'GGA Structure Optimization'>, 'mp-731415': <CalcType.GGA_Static: 'GGA Static'>}"
mp-559027,Sr4 H48 C16 S16 N8 O32,5.752599999999999,"{'mp-665587': <CalcType.GGA_NSCF_Line: 'GGA NSCF Line'>, 'mp-657848': <CalcType.GGA_Static: 'GGA Static'>, 'mp-680858': <CalcType.GGA_NSCF_Line: 'GGA NSCF Line'>, 'mp-559027': <CalcType.GGA_Structure_Optimization: 'GGA Structure Optimization'>, 'mp-1334739': <CalcType.GGA_Static: 'GGA Static'>}"
mp-696200,Cu4 H80 C8 S12 N32 O32,0.665,"{'mp-1334331': <CalcType.GGA_Static: 'GGA Static'>, 'mp-696200': <CalcType.GGA_Structure_Optimization: 'GGA Structure Optimization'>, 'mp-731797': <CalcType.GGA_Static: 'GGA Static'>}"
mp-699914,Mn8 P4 C44 S4 O32 F36,3.1326,"{'mp-839739': <CalcType.GGA_NSCF_Line: 'GGA NSCF Line'>, 'mp-1336402': <CalcType.GGA_U_Static: 'GGA+U Static'>, 'mp-822370': <CalcType.GGA_U_Static: 'GGA+U Static'>, 'mp-823145': <CalcType.GGA_U_NSCF_Line: 'GGA+U NSCF Line'>, 'mp-699914': <CalcType.GGA_U_Structure_Optimization: 'GGA+U Structure Optimization'>, 'mp-731266': <CalcType.GGA_Static: 'GGA Static'>, 'mp-824035': <CalcType.GGA_U_NSCF_Line: 'GGA+U NSCF Line'>, 'mp-840843': <CalcType.GGA_NSCF_Line: 'GGA NSCF Line'>}"
mp-769075,Li4 Cu2 H28 C8 N12 O16,1.082099999999999,"{'mp-852857': <CalcType.GGA_Static: 'GGA Static'>, 'mp-769075': <CalcType.GGA_Structure_Optimization: 'GGA Structure Optimization'>, 'mp-856631': <CalcType.GGA_NSCF_Line: 'GGA NSCF Line'>, 'mp-1328910': <CalcType.GGA_Static: 'GGA Static'>, 'mp-857476': <CalcType.GGA_NSCF_Line: 'GGA NSCF Line'>, 'mp-1937206': <CalcType.GGA_Static: 'GGA Static'>}"
mp-24100,K1 Cr1 H18 N6 Cl4 O8,3.7571,"{'mp-817976': <CalcType.GGA_U_Static: 'GGA+U Static'>, 'mp-848919': <CalcType.GGA_U_NSCF_Line: 'GGA+U NSCF Line'>, 'mp-25514': <CalcType.GGA_U_Structure_Optimization: 'GGA+U Structure Optimization'>, 'mp-634544': <CalcType.GGA_U_Structure_Optimization: 'GGA+U Structure Optimization'>, 'mp-24100': <CalcType.GGA_Structure_Optimization: 'GGA Structure Optimization'>, 'mp-1404046': <CalcType.GGA_U_Static: 'GGA+U Static'>, 'mp-1742847': <CalcType.GGA_U_NSCF_Uniform: 'GGA+U NSCF Uniform'>, 'mp-1817307': <CalcType.GGA_U_Static: 'GGA+U Static'>, 'mp-848997': <CalcType.GGA_U_NSCF_Line: 'GGA+U NSCF Line'>, 'mp-2301482': <CalcType.GGA_U_NSCF_Line: 'GGA+U NSCF Line'>}"
mp-24680,Rb1 H18 Ru1 N6 Cl4 O8,0.1947,"{'mp-24680': <CalcType.GGA_Structure_Optimization: 'GGA Structure Optimization'>, 'mp-1445413': <CalcType.GGA_Static: 'GGA Static'>, 'mp-1742149': <CalcType.GGA_NSCF_Uniform: 'GGA NSCF Uniform'>, 'mp-1821447': <CalcType.GGA_Static: 'GGA Static'>}"
mp-24110,Cs1 H18 Ru1 N6 Cl4 O8,0.0,"{'mp-24110': <CalcType.GGA_Structure_Optimization: 'GGA Structure Optimization'>, 'mp-1407736': <CalcType.GGA_Static: 'GGA Static'>, 'mp-1743484': <CalcType.GGA_NSCF_Uniform: 'GGA NSCF Uniform'>, 'mp-1819718': <CalcType.GGA_Static: 'GGA Static'>}"
mp-24681,Cs1 Cr1 H18 N6 Cl4 O8,3.9754,"{'mp-823850': <CalcType.GGA_U_NSCF_Line: 'GGA+U NSCF Line'>, 'mp-818043': <CalcType.GGA_U_Static: 'GGA+U Static'>, 'mp-633514': <CalcType.GGA_U_Structure_Optimization: 'GGA+U Structure Optimization'>, 'mp-25511': <CalcType.GGA_U_Structure_Optimization: 'GGA+U Structure Optimization'>, 'mp-24681': <CalcType.GGA_Structure_Optimization: 'GGA Structure Optimization'>, 'mp-1384416': <CalcType.GGA_U_Static: 'GGA+U Static'>, 'mp-1743419': <CalcType.GGA_U_NSCF_Uniform: 'GGA+U NSCF Uniform'>, 'mp-1814411': <CalcType.GGA_U_Static: 'GGA+U Static'>, 'mp-1654663': <CalcType.GGA_U_NSCF_Line: 'GGA+U NSCF Line'>, 'mp-824608': <CalcType.GGA_U_NSCF_Line: 'GGA+U NSCF Line'>, 'mp-2099689': <CalcType.GGA_U_NSCF_Line: 'GGA+U NSCF Line'>, 'mp-2301130': <CalcType.GGA_U_NSCF_Line: 'GGA+U NSCF Line'>}"
mp-541901,K1 H18 Os1 N6 Cl4 O8,3.0031,"{'mp-541901': <CalcType.GGA_Structure_Optimization: 'GGA Structure Optimization'>, 'mp-1389430': <CalcType.GGA_Static: 'GGA Static'>, 'mp-1744567': <CalcType.GGA_NSCF_Uniform: 'GGA NSCF Uniform'>, 'mp-1821944': <CalcType.GGA_Static: 'GGA Static'>}"
mp-735563,Cs1 Co1 H18 N6 Cl4 O8,3.7744,"{'mp-818257': <CalcType.GGA_U_Static: 'GGA+U Static'>, 'mp-848908': <CalcType.GGA_U_NSCF_Line: 'GGA+U NSCF Line'>, 'mp-735563': <CalcType.GGA_U_Structure_Optimization: 'GGA+U Structure Optimization'>, 'mp-834367': <CalcType.GGA_Static: 'GGA Static'>, 'mp-841077': <CalcType.GGA_NSCF_Line: 'GGA NSCF Line'>, 'mp-1393212': <CalcType.GGA_U_Static: 'GGA+U Static'>, 'mp-1734727': <CalcType.GGA_U_NSCF_Uniform: 'GGA+U NSCF Uniform'>, 'mp-1819860': <CalcType.GGA_U_Static: 'GGA+U Static'>, 'mp-841619': <CalcType.GGA_NSCF_Line: 'GGA NSCF Line'>, 'mp-848992': <CalcType.GGA_U_NSCF_Line: 'GGA+U NSCF Line'>, 'mp-1621131': <CalcType.GGA_U_NSCF_Line: 'GGA+U NSCF Line'>, 'mp-2108902': <CalcType.GGA_U_NSCF_Line: 'GGA+U NSCF Line'>, 'mp-2307655': <CalcType.GGA_U_NSCF_Line: 'GGA+U NSCF Line'>, 'mp-2926985': <CalcType.GGA_U_Structure_Optimization: 'GGA+U Structure Optimization'>, 'mp-2923482': <CalcType.GGA_U_Deformation: 'GGA+U Deformation'>, 'mp-2923496': <CalcType.GGA_U_Deformation: 'GGA+U Deformation'>, 'mp-2923516': <CalcType.GGA_U_Deformation: 'GGA+U Deformation'>, 'mp-2923518': <CalcType.GGA_U_Deformation: 'GGA+U Deformation'>, 'mp-2923535': <CalcType.GGA_U_Deformation: 'GGA+U Deformation'>, 'mp-2923580': <CalcType.GGA_U_Deformation: 'GGA+U Deformation'>, 'mp-2923619': <CalcType.GGA_U_Deformation: 'GGA+U Deformation'>, 'mp-2923673': <CalcType.GGA_U_Deformation: 'GGA+U Deformation'>, 'mp-2923682': <CalcType.GGA_U_Deformation: 'GGA+U Deformation'>, 'mp-2923704': <CalcType.GGA_U_Deformation: 'GGA+U Deformation'>, 'mp-2923728': <CalcType.GGA_U_Deformation: 'GGA+U Deformation'>, 'mp-2923757': <CalcType.GGA_U_Deformation: 'GGA+U Deformation'>, 'mp-2923779': <CalcType.GGA_U_Deformation: 'GGA+U Deformation'>, 'mp-2923792': <CalcType.GGA_U_Deformation: 'GGA+U Deformation'>, 'mp-2923816': <CalcType.GGA_U_Deformation: 'GGA+U Deformation'>, 'mp-2923831': <CalcType.GGA_U_Deformation: 'GGA+U Deformation'>, 'mp-2934708': <CalcType.GGA_U_Deformation: 'GGA+U Deformation'>, 'mp-2934796': <CalcType.GGA_U_Deformation: 'GGA+U Deformation'>, 'mp-2923509': <CalcType.GGA_U_Deformation: 'GGA+U Deformation'>}"
mp-1200274,Na4 Sr2 P4 H32 S12 O16,3.2413,"{'mp-1200274': <CalcType.GGA_Structure_Optimization: 'GGA Structure Optimization'>, 'mp-1897092': <CalcType.GGA_Static: 'GGA Static'>, 'mp-1985807': <CalcType.GGA_Static: 'GGA Static'>}"
mp-1199708,Tb2 Ag2 H20 C40 N12 O16,2.950199999999999,"{'mp-1199708': <CalcType.GGA_Structure_Optimization: 'GGA Structure Optimization'>, 'mp-1363922': <CalcType.GGA_Static: 'GGA Static'>, 'mp-1848333': <CalcType.GGA_Static: 'GGA Static'>}"
mp-1201258,Na4 Ca2 P4 H32 S12 O16,3.2278000000000002,"{'mp-1201258': <CalcType.GGA_Structure_Optimization: 'GGA Structure Optimization'>, 'mp-1919784': <CalcType.GGA_Static: 'GGA Static'>, 'mp-1986197': <CalcType.GGA_Static: 'GGA Static'>}"
mp-1204019,Nd2 Ag2 H20 C40 N12 O16,3.0097,"{'mp-1204019': <CalcType.GGA_Structure_Optimization: 'GGA Structure Optimization'>, 'mp-1236980': <CalcType.GGA_Structure_Optimization: 'GGA Structure Optimization'>, 'mp-1326700': <CalcType.GGA_Static: 'GGA Static'>, 'mp-1848216': <CalcType.GGA_Static: 'GGA Static'>}"
mp-1229322,Ba4 Co4 H8 C12 Cl4 O32,0.2252,"{'mp-1229322': <CalcType.GGA_U_Structure_Optimization: 'GGA+U Structure Optimization'>, 'mp-1875621': <CalcType.GGA_U_Static: 'GGA+U Static'>}"
mp-1213594,Gd2 H36 C8 N12 Cl6 O16,3.1385,"{'mp-1213594': <CalcType.GGA_Structure_Optimization: 'GGA Structure Optimization'>, 'mp-1872109': <CalcType.GGA_Static: 'GGA Static'>}"
mp-23872,Ca6 Al4 H12 S2 O16 F16,5.8611,"{'mp-739664': <CalcType.GGA_NSCF_Line: 'GGA NSCF Line'>, 'mp-725247': <CalcType.GGA_Static: 'GGA Static'>, 'mp-23872': <CalcType.GGA_Structure_Optimization: 'GGA Structure Optimization'>, 'mp-1258593': <CalcType.GGA_Structure_Optimization: 'GGA Structure Optimization'>, 'mp-1258602': <CalcType.GGA_NMR_Nuclear_Shielding: 'GGA NMR Nuclear Shielding'>, 'mp-1259255': <CalcType.GGA_NMR_Electric_Field_Gradient: 'GGA NMR Electric Field Gradient'>, 'mp-1368166': <CalcType.GGA_Static: 'GGA Static'>, 'mp-1888725': <CalcType.GGA_Static: 'GGA Static'>, 'mp-747708': <CalcType.GGA_NSCF_Line: 'GGA NSCF Line'>}"
mp-1227705,Ba1 Sr1 Ca1 Mg1 Si2 O8,4.7476,"{'mp-1227705': <CalcType.GGA_Structure_Optimization: 'GGA Structure Optimization'>, 'mp-1406003': <CalcType.GGA_Static: 'GGA Static'>, 'mp-1828943': <CalcType.GGA_Static: 'GGA Static'>}"
mp-2232388,K2 Rb1 Tb1 Mg1 V2 O8,0.0,{'mp-2232388': <CalcType.GGA_U_Structure_Optimization: 'GGA+U Structure Optimization'>}
mp-684976,Cs1 Co1 H18 N6 Cl4 O8,1.4554,"{'mp-724524': <CalcType.GGA_Static: 'GGA Static'>, 'mp-840095': <CalcType.GGA_NSCF_Line: 'GGA NSCF Line'>, 'mp-684976': <CalcType.GGA_Structure_Optimization: 'GGA Structure Optimization'>, 'mp-838954': <CalcType.GGA_Static: 'GGA Static'>, 'mp-1825610': <CalcType.GGA_U_Static: 'GGA+U Static'>, 'mp-841209': <CalcType.GGA_NSCF_Line: 'GGA NSCF Line'>}"
mp-1196364,Rb1 H18 Ru1 N6 Cl4 O8,0.2003,"{'mp-1196364': <CalcType.GGA_Structure_Optimization: 'GGA Structure Optimization'>, 'mp-1816940': <CalcType.GGA_Static: 'GGA Static'>, 'mp-1983882': <CalcType.GGA_Static: 'GGA Static'>}"
mp-24099,K1 Cr1 H18 N6 Cl4 O8,3.819,"{'mp-818186': <CalcType.GGA_U_Static: 'GGA+U Static'>, 'mp-823928': <CalcType.GGA_U_NSCF_Line: 'GGA+U NSCF Line'>, 'mp-633601': <CalcType.GGA_U_Structure_Optimization: 'GGA+U Structure Optimization'>, 'mp-25513': <CalcType.GGA_U_Structure_Optimization: 'GGA+U Structure Optimization'>, 'mp-24099': <CalcType.GGA_Structure_Optimization: 'GGA Structure Optimization'>, 'mp-1385527': <CalcType.GGA_U_Static: 'GGA+U Static'>, 'mp-1743812': <CalcType.GGA_U_NSCF_Uniform: 'GGA+U NSCF Uniform'>, 'mp-1822828': <CalcType.GGA_U_Static: 'GGA+U Static'>, 'mp-1655197': <CalcType.GGA_U_NSCF_Line: 'GGA+U NSCF Line'>, 'mp-824777': <CalcType.GGA_U_NSCF_Line: 'GGA+U NSCF Line'>, 'mp-2100240': <CalcType.GGA_U_NSCF_Line: 'GGA+U NSCF Line'>}"
mp-24132,K1 H18 Ru1 N6 Cl4 O8,0.0,"{'mp-1008746': <CalcType.GGA_NSCF_Line: 'GGA NSCF Line'>, 'mp-1002302': <CalcType.GGA_Static: 'GGA Static'>, 'mp-24132': <CalcType.GGA_Structure_Optimization: 'GGA Structure Optimization'>, 'mp-1396648': <CalcType.GGA_Static: 'GGA Static'>, 'mp-1722415': <CalcType.GGA_NSCF_Uniform: 'GGA NSCF Uniform'>, 'mp-1816416': <CalcType.GGA_Static: 'GGA Static'>, 'mp-1012780': <CalcType.GGA_NSCF_Line: 'GGA NSCF Line'>}"
mp-1197634,Al8 P16 H128 C16 N24 O64,4.851199999999999,{'mp-1197634': <CalcType.GGA_Structure_Optimization: 'GGA Structure Optimization'>}
mp-553914,K2 Cd2 Cu14 Se4 Cl18 O16,0.0,"{'mp-928886': <CalcType.GGA_NSCF_Line: 'GGA NSCF Line'>, 'mp-928028': <CalcType.GGA_NSCF_Line: 'GGA NSCF Line'>, 'mp-911839': <CalcType.GGA_Static: 'GGA Static'>, 'mp-553914': <CalcType.GGA_Structure_Optimization: 'GGA Structure Optimization'>, 'mp-1356304': <CalcType.GGA_Static: 'GGA Static'>, 'mp-1657780': <CalcType.GGA_Static: 'GGA Static'>, 'mp-1846597': <CalcType.GGA_Static: 'GGA Static'>}"
mp-1100964,U2 P2 H20 C8 N4 O16,1.4765000000000001,"{'mp-1100964': <CalcType.GGA_Structure_Optimization: 'GGA Structure Optimization'>, 'mp-1893351': <CalcType.GGA_Static: 'GGA Static'>}"
mp-1180029,Pb1 C6 S6 N12 Cl2 O8,0.0,"{'mp-1180029': <CalcType.GGA_Structure_Optimization: 'GGA Structure Optimization'>, 'mp-1892601': <CalcType.GGA_Static: 'GGA Static'>}"