Material ID,Composition,Band Gap,Calc Types
mp-1195775,B4 P4 H16 N4 O16 F4,5.8163,"{'mp-1195775': <CalcType.GGA_Structure_Optimization: 'GGA Structure Optimization'>, 'mp-1368014': <CalcType.GGA_Static: 'GGA Static'>, 'mp-1680593': <CalcType.GGA_NSCF_Uniform: 'GGA NSCF Uniform'>, 'mp-1819611': <CalcType.GGA_Static: 'GGA Static'>}"
mp-1192972,Pb2 C6 S4 N2 O8 F4,0.039199999999999006,"{'mp-1192972': <CalcType.GGA_Structure_Optimization: 'GGA Structure Optimization'>, 'mp-1446298': <CalcType.GGA_Static: 'GGA Static'>, 'mp-1715099': <CalcType.GGA_NSCF_Uniform: 'GGA NSCF Uniform'>, 'mp-1883665': <CalcType.GGA_Static: 'GGA Static'>, 'mp-1627691': <CalcType.GGA_NSCF_Line: 'GGA NSCF Line'>, 'mp-2102492': <CalcType.GGA_NSCF_Line: 'GGA NSCF Line'>, 'mp-2312079': <CalcType.GGA_NSCF_Line: 'GGA NSCF Line'>}"
mp-1198862,Zn2 H20 C4 S6 N12 O8,3.8465,"{'mp-1198862': <CalcType.GGA_Structure_Optimization: 'GGA Structure Optimization'>, 'mp-1884829': <CalcType.GGA_Static: 'GGA Static'>, 'mp-1981957': <CalcType.GGA_Static: 'GGA Static'>}"
mp-1199405,H32 Au2 C24 S4 N6 O8,2.470399999999999,"{'mp-1199405': <CalcType.GGA_Structure_Optimization: 'GGA Structure Optimization'>, 'mp-1846554': <CalcType.GGA_Static: 'GGA Static'>}"
mp-1200478,As2 H18 C4 S2 N8 O8,3.0929,"{'mp-1200478': <CalcType.GGA_Structure_Optimization: 'GGA Structure Optimization'>, 'mp-1238622': <CalcType.GGA_Structure_Optimization: 'GGA Structure Optimization'>, 'mp-1388061': <CalcType.GGA_Static: 'GGA Static'>, 'mp-1728918': <CalcType.GGA_NSCF_Uniform: 'GGA NSCF Uniform'>, 'mp-1820283': <CalcType.GGA_Static: 'GGA Static'>}"
mp-1201227,H48 Au2 C32 S4 N6 O8,2.3314,"{'mp-1201227': <CalcType.GGA_Structure_Optimization: 'GGA Structure Optimization'>, 'mp-1325981': <CalcType.GGA_Static: 'GGA Static'>, 'mp-1847701': <CalcType.GGA_Static: 'GGA Static'>, 'mp-1583565': <CalcType.GGA_NSCF_Line: 'GGA NSCF Line'>}"
mp-1200614,P2 H18 C4 S2 N8 O8,3.323099999999999,"{'mp-1200614': <CalcType.GGA_Structure_Optimization: 'GGA Structure Optimization'>, 'mp-1238628': <CalcType.GGA_Structure_Optimization: 'GGA Structure Optimization'>, 'mp-1384739': <CalcType.GGA_Static: 'GGA Static'>, 'mp-1738169': <CalcType.GGA_NSCF_Uniform: 'GGA NSCF Uniform'>, 'mp-1820803': <CalcType.GGA_Static: 'GGA Static'>}"
mp-1202744,H36 C12 S8 N8 Cl4 O16,4.0958,"{'mp-1202744': <CalcType.GGA_Structure_Optimization: 'GGA Structure Optimization'>, 'mp-1850410': <CalcType.GGA_Static: 'GGA Static'>, 'mp-1982149': <CalcType.GGA_Static: 'GGA Static'>}"
mp-1202335,Be2 H32 C8 S4 Cl4 O8,4.3852,"{'mp-1202335': <CalcType.GGA_Structure_Optimization: 'GGA Structure Optimization'>, 'mp-1885315': <CalcType.GGA_Static: 'GGA Static'>, 'mp-1982912': <CalcType.GGA_Static: 'GGA Static'>}"
mp-1204845,H14 C4 S2 N8 Cl2 O8,3.4124,"{'mp-1204845': <CalcType.GGA_Structure_Optimization: 'GGA Structure Optimization'>, 'mp-1825677': <CalcType.GGA_Static: 'GGA Static'>}"
mp-1204966,Cd3 Co2 H44 Br12 N12 O4,2.83,"{'mp-1204966': <CalcType.GGA_U_Structure_Optimization: 'GGA+U Structure Optimization'>, 'mp-1844757': <CalcType.GGA_U_Static: 'GGA+U Static'>, 'mp-1982467': <CalcType.GGA_U_Static: 'GGA+U Static'>, 'mp-2911541': <CalcType.r2SCAN_Structure_Optimization: 'r2SCAN Structure Optimization'>}"
mp-1210347,P2 H34 C8 S4 N16 O8,3.0984,"{'mp-1210347': <CalcType.GGA_Structure_Optimization: 'GGA Structure Optimization'>, 'mp-1862445': <CalcType.GGA_Static: 'GGA Static'>}"
mp-1223295,Li2 Mg1 Zr2 H4 O4 F12,0.6743,"{'mp-1223295': <CalcType.GGA_Structure_Optimization: 'GGA Structure Optimization'>, 'mp-1238228': <CalcType.GGA_Structure_Optimization: 'GGA Structure Optimization'>, 'mp-1810852': <CalcType.GGA_Static: 'GGA Static'>}"
mp-1233986,Ca1 Al2 H4 Pb2 O4 F6,1.1089,"{'mp-1233986': <CalcType.GGA_Static: 'GGA Static'>, 'mp-1234174': <CalcType.GGA_Structure_Optimization: 'GGA Structure Optimization'>}"
mp-1340838,Li2 Mg1 Zr2 H4 O4 F12,0.0,{'mp-1340838': <CalcType.GGA_Static: 'GGA Static'>}
mp-1236332,Li1 Al2 H4 Pb2 O4 F6,0.19770000000000001,"{'mp-1236332': <CalcType.GGA_Structure_Optimization: 'GGA Structure Optimization'>, 'mp-1236379': <CalcType.GGA_Static: 'GGA Static'>}"
mp-1238563,H32 Au2 C24 S4 N6 O8,2.3215,"{'mp-1238563': <CalcType.GGA_Structure_Optimization: 'GGA Structure Optimization'>, 'mp-1350776': <CalcType.GGA_Static: 'GGA Static'>, 'mp-1685909': <CalcType.GGA_NSCF_Uniform: 'GGA NSCF Uniform'>, 'mp-1895419': <CalcType.GGA_Static: 'GGA Static'>}"
mp-1233357,Ca1 Al2 H4 Pb2 O4 F6,0.0,"{'mp-1233357': <CalcType.GGA_Structure_Optimization: 'GGA Structure Optimization'>, 'mp-1234247': <CalcType.GGA_Static: 'GGA Static'>}"
mp-1234096,Ca1 Al2 H4 Pb2 O4 F6,0.16609999999999903,"{'mp-1234096': <CalcType.GGA_Static: 'GGA Static'>, 'mp-1234822': <CalcType.GGA_Structure_Optimization: 'GGA Structure Optimization'>}"
mp-1236334,Li1 Al2 H4 Pb2 O4 F6,0.0,"{'mp-1236334': <CalcType.GGA_Static: 'GGA Static'>, 'mp-1236723': <CalcType.GGA_Structure_Optimization: 'GGA Structure Optimization'>}"
mp-1234634,Mg1 Al2 H4 Pb2 O4 F6,1.0779,"{'mp-1234634': <CalcType.GGA_Static: 'GGA Static'>, 'mp-1234677': <CalcType.GGA_Structure_Optimization: 'GGA Structure Optimization'>}"
mp-1234851,Mg1 Al2 H4 Pb2 O4 F6,0.0,"{'mp-1234851': <CalcType.GGA_Static: 'GGA Static'>, 'mp-1234853': <CalcType.GGA_Structure_Optimization: 'GGA Structure Optimization'>}"
mp-555250,Ag2 H18 C14 S4 O8 F8,3.1765,"{'mp-658101': <CalcType.GGA_Static: 'GGA Static'>, 'mp-666549': <CalcType.GGA_NSCF_Line: 'GGA NSCF Line'>, 'mp-681970': <CalcType.GGA_NSCF_Line: 'GGA NSCF Line'>, 'mp-555250': <CalcType.GGA_Structure_Optimization: 'GGA Structure Optimization'>, 'mp-1376944': <CalcType.GGA_Static: 'GGA Static'>, 'mp-1889350': <CalcType.GGA_Static: 'GGA Static'>}"
mp-561074,H56 Rh4 C24 N4 Cl4 O16,1.648699999999999,"{'mp-654891': <CalcType.GGA_Static: 'GGA Static'>, 'mp-659676': <CalcType.GGA_NSCF_Line: 'GGA NSCF Line'>, 'mp-561074': <CalcType.GGA_Structure_Optimization: 'GGA Structure Optimization'>, 'mp-656354': <CalcType.GGA_NSCF_Line: 'GGA NSCF Line'>, 'mp-1327978': <CalcType.GGA_Static: 'GGA Static'>, 'mp-1847787': <CalcType.GGA_Static: 'GGA Static'>, 'mp-1629447': <CalcType.GGA_NSCF_Line: 'GGA NSCF Line'>}"
mp-707816,H10 C2 S2 N4 Cl2 O8,2.4905,"{'mp-707816': <CalcType.GGA_Structure_Optimization: 'GGA Structure Optimization'>, 'mp-728907': <CalcType.GGA_Static: 'GGA Static'>, 'mp-864149': <CalcType.GGA_NSCF_Line: 'GGA NSCF Line'>, 'mp-1181259': <CalcType.GGA_Structure_Optimization: 'GGA Structure Optimization'>, 'mp-1390013': <CalcType.GGA_Static: 'GGA Static'>, 'mp-1767628': <CalcType.GGA_NSCF_Uniform: 'GGA NSCF Uniform'>, 'mp-1837001': <CalcType.GGA_Static: 'GGA Static'>, 'mp-864464': <CalcType.GGA_NSCF_Line: 'GGA NSCF Line'>, 'mp-1612984': <CalcType.GGA_NSCF_Line: 'GGA NSCF Line'>, 'mp-737068': <CalcType.GGA_NSCF_Line: 'GGA NSCF Line'>, 'mp-2167131': <CalcType.GGA_NSCF_Line: 'GGA NSCF Line'>, 'mp-2445280': <CalcType.GGA_NSCF_Line: 'GGA NSCF Line'>}"
mp-1235184,Sr4 Li1 Mn2 Cu3 S4 O4,0.0,"{'mp-1235184': <CalcType.GGA_U_Static: 'GGA+U Static'>, 'mp-1235899': <CalcType.GGA_U_Structure_Optimization: 'GGA+U Structure Optimization'>, 'mp-1236012': <CalcType.GGA_U_Structure_Optimization: 'GGA+U Structure Optimization'>, 'mp-1236139': <CalcType.GGA_U_Static: 'GGA+U Static'>}"
mp-2224832,Mg1 Cu1 H4 Pb2 Cl2 O4,0.028699999999999,{'mp-2224832': <CalcType.GGA_Structure_Optimization: 'GGA Structure Optimization'>}
mp-1205234,Ag8 H64 C24 S16 Cl8 O32,3.464,"{'mp-1205234': <CalcType.GGA_Structure_Optimization: 'GGA Structure Optimization'>, 'mp-1336770': <CalcType.GGA_Static: 'GGA Static'>}"
mp-774708,Zn4 H48 C12 S16 N24 O16,4.1327,"{'mp-862122': <CalcType.GGA_NSCF_Line: 'GGA NSCF Line'>, 'mp-853849': <CalcType.GGA_Static: 'GGA Static'>, 'mp-774708': <CalcType.GGA_Structure_Optimization: 'GGA Structure Optimization'>, 'mp-1336561': <CalcType.GGA_Static: 'GGA Static'>, 'mp-863184': <CalcType.GGA_NSCF_Line: 'GGA NSCF Line'>, 'mp-1628930': <CalcType.GGA_NSCF_Line: 'GGA NSCF Line'>}"
mp-555146,K8 C8 S16 N8 O32 F16,4.5234,"{'mp-691902': <CalcType.GGA_NSCF_Line: 'GGA NSCF Line'>, 'mp-668460': <CalcType.GGA_Static: 'GGA Static'>, 'mp-710011': <CalcType.GGA_NSCF_Line: 'GGA NSCF Line'>, 'mp-555146': <CalcType.GGA_Structure_Optimization: 'GGA Structure Optimization'>, 'mp-1363721': <CalcType.GGA_Static: 'GGA Static'>}"
mp-541423,Fe8 P8 H32 N8 O32 F8,2.396,"{'mp-745119': <CalcType.GGA_U_Structure_Optimization: 'GGA+U Structure Optimization'>, 'mp-818494': <CalcType.GGA_U_Static: 'GGA+U Static'>, 'mp-541423': <CalcType.GGA_U_Structure_Optimization: 'GGA+U Structure Optimization'>, 'mp-721288': <CalcType.GGA_Structure_Optimization: 'GGA Structure Optimization'>, 'mp-1328239': <CalcType.GGA_U_Static: 'GGA+U Static'>}"
mp-1173427,P4 H52 Au2 C18 Cl6 O8,4.1684,"{'mp-1173427': <CalcType.GGA_Structure_Optimization: 'GGA Structure Optimization'>, 'mp-1338042': <CalcType.GGA_Static: 'GGA Static'>, 'mp-1849094': <CalcType.GGA_Static: 'GGA Static'>, 'mp-1629182': <CalcType.GGA_NSCF_Line: 'GGA NSCF Line'>}"
mp-1203119,H24 Os2 C8 N2 O8 F2,2.4179999999999993,"{'mp-1203119': <CalcType.GGA_Structure_Optimization: 'GGA Structure Optimization'>, 'mp-1374236': <CalcType.GGA_Static: 'GGA Static'>, 'mp-1683166': <CalcType.GGA_NSCF_Uniform: 'GGA NSCF Uniform'>, 'mp-1927823': <CalcType.GGA_Static: 'GGA Static'>}"
mp-1195533,Li2 Al2 C32 Cl24 O8 F48,4.679,"{'mp-1195533': <CalcType.GGA_Structure_Optimization: 'GGA Structure Optimization'>, 'mp-1336805': <CalcType.GGA_Static: 'GGA Static'>}"
mp-1200508,Rb2 P2 H12 C4 N8 O8,5.299799999999999,"{'mp-1200508': <CalcType.GGA_Structure_Optimization: 'GGA Structure Optimization'>, 'mp-1820065': <CalcType.GGA_Static: 'GGA Static'>, 'mp-1983163': <CalcType.GGA_Static: 'GGA Static'>}"
mp-1197055,Cd2 H24 C8 I4 N8 O8,3.343899999999999,"{'mp-1197055': <CalcType.GGA_Structure_Optimization: 'GGA Structure Optimization'>, 'mp-1920756': <CalcType.GGA_Static: 'GGA Static'>, 'mp-1982699': <CalcType.GGA_Static: 'GGA Static'>}"
mp-1202391,K2 P2 H12 C4 N8 O8,5.2859,"{'mp-1202391': <CalcType.GGA_Structure_Optimization: 'GGA Structure Optimization'>, 'mp-1840070': <CalcType.GGA_Static: 'GGA Static'>, 'mp-1987153': <CalcType.GGA_Static: 'GGA Static'>}"
mp-1235689,Sr4 Li1 Mn2 Cu3 S4 O4,0.3009,"{'mp-1235689': <CalcType.GGA_U_Structure_Optimization: 'GGA+U Structure Optimization'>, 'mp-1236106': <CalcType.GGA_U_Static: 'GGA+U Static'>}"
mp-1235142,Sr4 Li1 Mn2 Cu3 S4 O4,0.0,"{'mp-1235142': <CalcType.GGA_U_Structure_Optimization: 'GGA+U Structure Optimization'>, 'mp-1235149': <CalcType.GGA_U_Static: 'GGA+U Static'>}"
mp-1236434,Sr4 Li1 Mn2 Cu3 S4 O4,0.355699999999999,"{'mp-1236434': <CalcType.GGA_U_Structure_Optimization: 'GGA+U Structure Optimization'>, 'mp-1236648': <CalcType.GGA_U_Static: 'GGA+U Static'>}"
mp-1233888,Sr4 Mg1 Mn2 Cu3 S4 O4,0.0,"{'mp-1233888': <CalcType.GGA_U_Static: 'GGA+U Static'>, 'mp-1233974': <CalcType.GGA_U_Structure_Optimization: 'GGA+U Structure Optimization'>}"
mp-1196395,Co4 H72 S8 Br4 N24 O16,0.0,"{'mp-1196395': <CalcType.GGA_U_Structure_Optimization: 'GGA+U Structure Optimization'>, 'mp-1199392': <CalcType.GGA_U_Structure_Optimization: 'GGA+U Structure Optimization'>, 'mp-1203407': <CalcType.GGA_U_Structure_Optimization: 'GGA+U Structure Optimization'>, 'mp-1338106': <CalcType.GGA_U_Static: 'GGA+U Static'>}"
mp-557395,Li4 C8 S8 N4 O16 F24,5.9655000000000005,"{'mp-694236': <CalcType.GGA_NSCF_Line: 'GGA NSCF Line'>, 'mp-671928': <CalcType.GGA_Static: 'GGA Static'>, 'mp-711472': <CalcType.GGA_NSCF_Line: 'GGA NSCF Line'>, 'mp-557395': <CalcType.GGA_Structure_Optimization: 'GGA Structure Optimization'>, 'mp-1358871': <CalcType.GGA_Static: 'GGA Static'>, 'mp-1919865': <CalcType.GGA_Static: 'GGA Static'>}"
mp-707466,H4 C8 S8 N4 O16 F24,6.4190000000000005,"{'mp-733315': <CalcType.GGA_NSCF_Line: 'GGA NSCF Line'>, 'mp-707466': <CalcType.GGA_Structure_Optimization: 'GGA Structure Optimization'>, 'mp-728765': <CalcType.GGA_Static: 'GGA Static'>, 'mp-1355765': <CalcType.GGA_Static: 'GGA Static'>, 'mp-1894982': <CalcType.GGA_Static: 'GGA Static'>, 'mp-737790': <CalcType.GGA_NSCF_Line: 'GGA NSCF Line'>}"
mp-6902,C32 N16 O64 F96 S32 K16,6.2589,{'mp-6902': <CalcType.GGA_Structure_Optimization: 'GGA Structure Optimization'>}
mp-1199791,Be8 H192 C64 S32 Cl16 O32,3.684,{'mp-1199791': <CalcType.GGA_Structure_Optimization: 'GGA Structure Optimization'>}
mp-1198791,Sb8 Te12 W4 C16 O16 F48,1.9537,"{'mp-1198791': <CalcType.GGA_U_Structure_Optimization: 'GGA+U Structure Optimization'>, 'mp-1337682': <CalcType.GGA_U_Static: 'GGA+U Static'>}"
mp-1179966,Sb8 Te12 W4 C16 O16 F48,0.265,"{'mp-1179966': <CalcType.GGA_U_Structure_Optimization: 'GGA+U Structure Optimization'>, 'mp-1338460': <CalcType.GGA_U_Static: 'GGA+U Static'>}"
mp-1198378,Na8 Li8 Fe8 P8 O32 F8,4.3042,"{'mp-1198378': <CalcType.GGA_U_Structure_Optimization: 'GGA+U Structure Optimization'>, 'mp-1351610': <CalcType.GGA_U_Static: 'GGA+U Static'>}"
mp-1204228,Na8 Li8 Co8 P8 O32 F8,0.0,"{'mp-1204228': <CalcType.GGA_U_Structure_Optimization: 'GGA+U Structure Optimization'>, 'mp-1350970': <CalcType.GGA_U_Static: 'GGA+U Static'>}"
mp-1203874,Na4 Sn4 P4 H4 O16 F4,3.7328,"{'mp-1203874': <CalcType.GGA_Structure_Optimization: 'GGA Structure Optimization'>, 'mp-1825987': <CalcType.GGA_Static: 'GGA Static'>, 'mp-1984929': <CalcType.GGA_Static: 'GGA Static'>}"
mp-558675,Sb8 Te12 Mo4 C16 O16 F48,2.1121,"{'mp-731264': <CalcType.GGA_U_Static: 'GGA+U Static'>, 'mp-742403': <CalcType.GGA_U_NSCF_Line: 'GGA+U NSCF Line'>, 'mp-650913': <CalcType.GGA_U_Structure_Optimization: 'GGA+U Structure Optimization'>, 'mp-579505': <CalcType.GGA_U_Structure_Optimization: 'GGA+U Structure Optimization'>, 'mp-558675': <CalcType.GGA_Structure_Optimization: 'GGA Structure Optimization'>, 'mp-836934': <CalcType.GGA_Static: 'GGA Static'>, 'mp-693110': <CalcType.GGA_Static: 'GGA Static'>, 'mp-837108': <CalcType.GGA_NSCF_Line: 'GGA NSCF Line'>, 'mp-1366278': <CalcType.GGA_U_Static: 'GGA+U Static'>, 'mp-837996': <CalcType.GGA_NSCF_Line: 'GGA NSCF Line'>, 'mp-750145': <CalcType.GGA_U_NSCF_Line: 'GGA+U NSCF Line'>}"
mp-720855,Co4 H68 S8 N20 Cl4 O16,0.47140000000000004,"{'mp-745061': <CalcType.GGA_U_Structure_Optimization: 'GGA+U Structure Optimization'>, 'mp-893416': <CalcType.GGA_U_Static: 'GGA+U Static'>, 'mp-904760': <CalcType.GGA_U_NSCF_Line: 'GGA+U NSCF Line'>, 'mp-734278': <CalcType.GGA_Static: 'GGA Static'>, 'mp-720855': <CalcType.GGA_Structure_Optimization: 'GGA Structure Optimization'>, 'mp-834389': <CalcType.GGA_NSCF_Line: 'GGA NSCF Line'>, 'mp-1336474': <CalcType.GGA_U_Static: 'GGA+U Static'>, 'mp-1844467': <CalcType.GGA_U_Static: 'GGA+U Static'>, 'mp-834954': <CalcType.GGA_NSCF_Line: 'GGA NSCF Line'>, 'mp-1628945': <CalcType.GGA_U_NSCF_Line: 'GGA+U NSCF Line'>}"
mp-601202,Na4 H8 C4 S4 O16 F12,5.766400000000001,"{'mp-601202': <CalcType.GGA_Structure_Optimization: 'GGA Structure Optimization'>, 'mp-662047': <CalcType.GGA_NSCF_Line: 'GGA NSCF Line'>, 'mp-657102': <CalcType.GGA_Static: 'GGA Static'>, 'mp-671462': <CalcType.GGA_NSCF_Line: 'GGA NSCF Line'>, 'mp-1181175': <CalcType.GGA_Structure_Optimization: 'GGA Structure Optimization'>, 'mp-1237743': <CalcType.GGA_Structure_Optimization: 'GGA Structure Optimization'>, 'mp-1375024': <CalcType.GGA_Static: 'GGA Static'>, 'mp-1683408': <CalcType.GGA_NSCF_Uniform: 'GGA NSCF Uniform'>, 'mp-1868513': <CalcType.GGA_Static: 'GGA Static'>}"
mp-698068,Sn4 P4 H20 N4 O16 F4,3.0982,"{'mp-731990': <CalcType.GGA_Static: 'GGA Static'>, 'mp-698068': <CalcType.GGA_Structure_Optimization: 'GGA Structure Optimization'>, 'mp-743024': <CalcType.GGA_NSCF_Line: 'GGA NSCF Line'>, 'mp-1377700': <CalcType.GGA_Static: 'GGA Static'>, 'mp-1871958': <CalcType.GGA_Static: 'GGA Static'>, 'mp-749816': <CalcType.GGA_NSCF_Line: 'GGA NSCF Line'>}"
mp-766448,Na4 Sn4 P4 H4 O16 F4,3.7555,"{'mp-852487': <CalcType.GGA_Static: 'GGA Static'>, 'mp-855332': <CalcType.GGA_NSCF_Line: 'GGA NSCF Line'>, 'mp-766448': <CalcType.GGA_Structure_Optimization: 'GGA Structure Optimization'>, 'mp-1358912': <CalcType.GGA_Static: 'GGA Static'>, 'mp-1824488': <CalcType.GGA_Static: 'GGA Static'>, 'mp-855869': <CalcType.GGA_NSCF_Line: 'GGA NSCF Line'>}"
mp-1198412,Sm2 Fe2 H16 C12 N12 O8,2.119199999999999,"{'mp-1198412': <CalcType.GGA_U_Structure_Optimization: 'GGA+U Structure Optimization'>, 'mp-1375115': <CalcType.GGA_U_Static: 'GGA+U Static'>, 'mp-1878157': <CalcType.GGA_U_Static: 'GGA+U Static'>}"
mp-1201732,Pr2 Fe2 H16 C12 N12 O8,2.1322,"{'mp-1201732': <CalcType.GGA_U_Structure_Optimization: 'GGA+U Structure Optimization'>, 'mp-1378802': <CalcType.GGA_U_Static: 'GGA+U Static'>, 'mp-1936823': <CalcType.GGA_U_Static: 'GGA+U Static'>}"
mp-1180947,K2 Tb2 Ru2 C12 N12 O8,1.0046,"{'mp-1180947': <CalcType.GGA_Structure_Optimization: 'GGA Structure Optimization'>, 'mp-1357295': <CalcType.GGA_Static: 'GGA Static'>, 'mp-1885368': <CalcType.GGA_Static: 'GGA Static'>}"
mp-745208,Dy2 Fe2 H16 C12 N12 O8,2.7838000000000003,"{'mp-745208': <CalcType.GGA_U_Structure_Optimization: 'GGA+U Structure Optimization'>, 'mp-818531': <CalcType.GGA_U_Static: 'GGA+U Static'>, 'mp-824447': <CalcType.GGA_U_NSCF_Line: 'GGA+U NSCF Line'>, 'mp-1340465': <CalcType.GGA_U_Static: 'GGA+U Static'>, 'mp-1886146': <CalcType.GGA_U_Static: 'GGA+U Static'>, 'mp-825085': <CalcType.GGA_U_NSCF_Line: 'GGA+U NSCF Line'>}"
mp-1200936,Er2 Co2 H16 C12 N12 O8,4.7946,"{'mp-1200936': <CalcType.GGA_U_Structure_Optimization: 'GGA+U Structure Optimization'>, 'mp-1204553': <CalcType.GGA_U_Structure_Optimization: 'GGA+U Structure Optimization'>, 'mp-1376937': <CalcType.GGA_U_Static: 'GGA+U Static'>, 'mp-1887888': <CalcType.GGA_U_Static: 'GGA+U Static'>}"
mp-1208264,Tl2 P2 C8 S8 N16 O8,0.0,"{'mp-1208264': <CalcType.GGA_Structure_Optimization: 'GGA Structure Optimization'>, 'mp-1351241': <CalcType.GGA_Static: 'GGA Static'>, 'mp-1880001': <CalcType.GGA_Static: 'GGA Static'>}"
mp-1193739,Na2 P2 H12 N2 O8 F2,4.7748,"{'mp-1193739': <CalcType.GGA_Structure_Optimization: 'GGA Structure Optimization'>, 'mp-1860802': <CalcType.GGA_Static: 'GGA Static'>, 'mp-1985510': <CalcType.GGA_Static: 'GGA Static'>}"
mp-1225015,Fe2 P2 H10 N2 O8 F2,3.7068000000000003,"{'mp-1225015': <CalcType.GGA_U_Structure_Optimization: 'GGA+U Structure Optimization'>, 'mp-1932082': <CalcType.GGA_U_Static: 'GGA+U Static'>}"
mp-1199274,U4 As4 C8 N8 O16 F8,0.617799999999999,"{'mp-1199274': <CalcType.GGA_Structure_Optimization: 'GGA Structure Optimization'>, 'mp-1872863': <CalcType.GGA_Static: 'GGA Static'>, 'mp-1982274': <CalcType.GGA_Static: 'GGA Static'>}"
mp-42805,K1 Cu2 H20 N3 Cl8 O4,0.9117000000000001,"{'mp-42805': <CalcType.GGA_Structure_Optimization: 'GGA Structure Optimization'>, 'mp-1118352': <CalcType.GGA_DFPT_Dielectric: 'GGA DFPT Dielectric'>, 'mp-1361567': <CalcType.GGA_Static: 'GGA Static'>, 'mp-1815900': <CalcType.GGA_Static: 'GGA Static'>}"
mp-1198947,Fe4 Hg8 C24 S8 N8 O16,1.555499999999999,"{'mp-1198947': <CalcType.GGA_U_Structure_Optimization: 'GGA+U Structure Optimization'>, 'mp-837760': <CalcType.GGA_NSCF_Line: 'GGA NSCF Line'>, 'mp-1327858': <CalcType.GGA_U_Static: 'GGA+U Static'>, 'mp-838475': <CalcType.GGA_NSCF_Line: 'GGA NSCF Line'>}"
mp-559978,Cu2 As4 S16 N16 O8 F56,1.166599999999999,"{'mp-559978': <CalcType.GGA_Structure_Optimization: 'GGA Structure Optimization'>, 'mp-693648': <CalcType.GGA_Static: 'GGA Static'>, 'mp-846165': <CalcType.GGA_NSCF_Line: 'GGA NSCF Line'>, 'mp-998682': <CalcType.GGA_NSCF_Line: 'GGA NSCF Line'>, 'mp-1338683': <CalcType.GGA_Static: 'GGA Static'>}"
mp-1191775,B2 As2 H8 N2 O8 F2,4.3662,"{'mp-1191775': <CalcType.GGA_Structure_Optimization: 'GGA Structure Optimization'>, 'mp-1236992': <CalcType.GGA_Structure_Optimization: 'GGA Structure Optimization'>, 'mp-1434056': <CalcType.GGA_Static: 'GGA Static'>, 'mp-1672719': <CalcType.GGA_NSCF_Uniform: 'GGA NSCF Uniform'>, 'mp-1922552': <CalcType.GGA_Static: 'GGA Static'>, 'mp-1608718': <CalcType.GGA_NSCF_Line: 'GGA NSCF Line'>, 'mp-2141258': <CalcType.GGA_NSCF_Line: 'GGA NSCF Line'>, 'mp-2605312': <CalcType.GGA_NSCF_Line: 'GGA NSCF Line'>}"