Material ID,Composition,Band Gap,Calc Types
mp-2714396,Na21 La6 Ta6 Si15 P3 O72,2.8008,{'mp-2714396': <CalcType.GGA_Structure_Optimization: 'GGA Structure Optimization'>}
mp-2714399,Na6 Y6 Sc6 Si3 S15 O72,1.750699999999999,{'mp-2714399': <CalcType.GGA_Structure_Optimization: 'GGA Structure Optimization'>}
mp-2714467,Na18 Mg3 Ti9 Si12 S6 O72,1.8612000000000002,{'mp-2714467': <CalcType.GGA_Structure_Optimization: 'GGA Structure Optimization'>}
mp-2714463,Na21 Ca6 Zn6 P9 S9 O72,3.8057,{'mp-2714463': <CalcType.GGA_Structure_Optimization: 'GGA Structure Optimization'>}
mp-2714391,Na6 Mg6 Si3 Sn6 S15 O72,0.4292,{'mp-2714391': <CalcType.GGA_Structure_Optimization: 'GGA Structure Optimization'>}
mp-2714402,Na18 Ta3 In9 Si12 S6 O72,2.6773,{'mp-2714402': <CalcType.GGA_Structure_Optimization: 'GGA Structure Optimization'>}
mp-2714415,Na18 Nb3 Al9 Si12 S6 O72,2.090799999999999,{'mp-2714415': <CalcType.GGA_Structure_Optimization: 'GGA Structure Optimization'>}
mp-2714421,Na6 Ca6 Si3 Ge6 S15 O72,0.0,{'mp-2714421': <CalcType.GGA_Structure_Optimization: 'GGA Structure Optimization'>}
mp-2714397,Na21 Hf6 Si15 Sn6 P3 O72,3.4086,{'mp-2714397': <CalcType.GGA_Structure_Optimization: 'GGA Structure Optimization'>}
mp-2714413,Na18 La9 Ta3 Si12 S6 O72,3.0347,{'mp-2714413': <CalcType.GGA_Structure_Optimization: 'GGA Structure Optimization'>}
mp-2714444,Na21 Nb6 Al6 Si15 P3 O72,2.5489,{'mp-2714444': <CalcType.GGA_Structure_Optimization: 'GGA Structure Optimization'>}
mp-2714471,Na18 Mg3 Si12 Sn9 S6 O72,1.625,{'mp-2714471': <CalcType.GGA_Structure_Optimization: 'GGA Structure Optimization'>}
mp-2714514,Na18 Ca3 Ti9 Si12 S6 O72,1.8124999999999991,{'mp-2714514': <CalcType.GGA_Structure_Optimization: 'GGA Structure Optimization'>}
mp-2714531,Na18 Hf9 Mg3 Si12 S6 O72,3.494799999999999,{'mp-2714531': <CalcType.GGA_Structure_Optimization: 'GGA Structure Optimization'>}
mp-2714476,Na18 Sc9 Nb3 Si12 S6 O72,2.2025,{'mp-2714476': <CalcType.GGA_Structure_Optimization: 'GGA Structure Optimization'>}
mp-2714478,Na18 Mg3 Si12 Ge9 S6 O72,1.4352,{'mp-2714478': <CalcType.GGA_Structure_Optimization: 'GGA Structure Optimization'>}
mp-2714508,Na21 Hf6 Zr6 Si15 P3 O72,4.382,{'mp-2714508': <CalcType.GGA_Structure_Optimization: 'GGA Structure Optimization'>}
mp-2714537,Na18 Zr9 Zn3 Si12 S6 O72,3.2893,{'mp-2714537': <CalcType.GGA_Structure_Optimization: 'GGA Structure Optimization'>}
mp-2714543,Na21 Y6 Ta6 Si15 P3 O72,3.092,{'mp-2714543': <CalcType.GGA_Structure_Optimization: 'GGA Structure Optimization'>}
mp-2714475,Na21 Si15 Sn6 Ge6 P3 O72,3.0814,{'mp-2714475': <CalcType.GGA_Structure_Optimization: 'GGA Structure Optimization'>}
mp-2714497,Na21 Y6 Nb6 Si15 P3 O72,2.2647,{'mp-2714497': <CalcType.GGA_Structure_Optimization: 'GGA Structure Optimization'>}
mp-2714515,Na21 Hf6 Si15 Ge6 P3 O72,3.4854,{'mp-2714515': <CalcType.GGA_Structure_Optimization: 'GGA Structure Optimization'>}
mp-2714494,Na6 Mg6 Si3 Ge6 S15 O72,0.18630000000000002,{'mp-2714494': <CalcType.GGA_Structure_Optimization: 'GGA Structure Optimization'>}
mp-2714489,Na6 Ca6 Zr6 Si3 S15 O72,2.0468,{'mp-2714489': <CalcType.GGA_Structure_Optimization: 'GGA Structure Optimization'>}
mp-2714557,Na6 Zn6 Si3 Ge6 S15 O72,0.19439999999999902,{'mp-2714557': <CalcType.GGA_Structure_Optimization: 'GGA Structure Optimization'>}
mp-2714536,Na18 Zn3 Si12 Sn9 S6 O72,1.7369999999999992,{'mp-2714536': <CalcType.GGA_Structure_Optimization: 'GGA Structure Optimization'>}
mp-2714547,Na6 Y6 Al6 Si3 S15 O72,2.7718,{'mp-2714547': <CalcType.GGA_Structure_Optimization: 'GGA Structure Optimization'>}
mp-2714479,Na21 Hf6 Ti6 Si15 P3 O72,2.7822,{'mp-2714479': <CalcType.GGA_Structure_Optimization: 'GGA Structure Optimization'>}
mp-2714500,Na21 Ta6 In6 Si15 P3 O72,3.147199999999999,{'mp-2714500': <CalcType.GGA_Structure_Optimization: 'GGA Structure Optimization'>}
mp-2714506,Na18 La9 Nb3 Si12 S6 O72,2.3158,{'mp-2714506': <CalcType.GGA_Structure_Optimization: 'GGA Structure Optimization'>}
mp-2714516,Na18 Zn3 Si12 Ge9 S6 O72,1.2574,{'mp-2714516': <CalcType.GGA_Structure_Optimization: 'GGA Structure Optimization'>}
mp-2714520,Na6 Ca6 Ti6 Si3 S15 O72,1.2486,{'mp-2714520': <CalcType.GGA_Structure_Optimization: 'GGA Structure Optimization'>}
mp-2714533,Na18 Y9 Ta3 Si12 S6 O72,2.9292,{'mp-2714533': <CalcType.GGA_Structure_Optimization: 'GGA Structure Optimization'>}
mp-2714603,Na6 Sc6 In6 Si3 S15 O72,1.9051,{'mp-2714603': <CalcType.GGA_Structure_Optimization: 'GGA Structure Optimization'>}
mp-2714616,Na21 Zr6 Ti6 Si15 P3 O72,2.9164000000000003,{'mp-2714616': <CalcType.GGA_Structure_Optimization: 'GGA Structure Optimization'>}
mp-2714623,Na21 Ti6 Al6 Si9 P9 O72,2.6592000000000002,{'mp-2714623': <CalcType.GGA_Structure_Optimization: 'GGA Structure Optimization'>}
mp-2714637,Na9 La3 Si9 Sn9 S9 O72,1.4485000000000001,{'mp-2714637': <CalcType.GGA_Structure_Optimization: 'GGA Structure Optimization'>}
mp-2714583,Na21 Ta6 Al6 Si15 P3 O72,3.3879,{'mp-2714583': <CalcType.GGA_Structure_Optimization: 'GGA Structure Optimization'>}
mp-2714610,Na21 Mg6 Zn6 P9 S9 O72,3.982199999999999,{'mp-2714610': <CalcType.GGA_Structure_Optimization: 'GGA Structure Optimization'>}
mp-2714625,Na15 Mg6 Al6 P9 S9 O72,4.3891,{'mp-2714625': <CalcType.GGA_Structure_Optimization: 'GGA Structure Optimization'>}
mp-2714645,Na15 Hf3 Mg9 P9 S9 O72,3.9095,{'mp-2714645': <CalcType.GGA_Structure_Optimization: 'GGA Structure Optimization'>}
mp-2714662,Na15 Ca6 In6 P9 S9 O72,2.6471,{'mp-2714662': <CalcType.GGA_Structure_Optimization: 'GGA Structure Optimization'>}
mp-2714682,Na15 Ti3 Zn9 P9 S9 O72,1.5127000000000002,{'mp-2714682': <CalcType.GGA_Structure_Optimization: 'GGA Structure Optimization'>}
mp-2714602,Na21 La6 Nb6 Si15 P3 O72,2.0097,{'mp-2714602': <CalcType.GGA_Structure_Optimization: 'GGA Structure Optimization'>}
mp-2714673,Na9 Ti9 Al3 Si9 S9 O72,2.2333,{'mp-2714673': <CalcType.GGA_Structure_Optimization: 'GGA Structure Optimization'>}
mp-2714692,Na15 Mg6 Sc6 P9 S9 O72,4.025799999999999,{'mp-2714692': <CalcType.GGA_Structure_Optimization: 'GGA Structure Optimization'>}
mp-2714697,Na21 Ca3 Zr9 Si9 P9 O72,3.7584,{'mp-2714697': <CalcType.GGA_Structure_Optimization: 'GGA Structure Optimization'>}
mp-2714712,Na15 Mg9 Zr3 P9 S9 O72,3.0717,{'mp-2714712': <CalcType.GGA_Structure_Optimization: 'GGA Structure Optimization'>}
mp-2714613,Na18 Hf9 Zn3 Si12 S6 O72,3.8946,{'mp-2714613': <CalcType.GGA_Structure_Optimization: 'GGA Structure Optimization'>}
mp-2714627,Na21 Hf9 Zn3 Si9 P9 O72,3.9451,{'mp-2714627': <CalcType.GGA_Structure_Optimization: 'GGA Structure Optimization'>}
mp-2714612,Na6 Ti6 Zn6 Si3 S15 O72,1.2535,{'mp-2714612': <CalcType.GGA_Structure_Optimization: 'GGA Structure Optimization'>}
mp-2714632,Na15 Ca6 Ga6 P9 S9 O72,2.3074,{'mp-2714632': <CalcType.GGA_Structure_Optimization: 'GGA Structure Optimization'>}
mp-2714634,Na21 Al6 Si9 Ge6 P9 O72,3.532499999999999,{'mp-2714634': <CalcType.GGA_Structure_Optimization: 'GGA Structure Optimization'>}
mp-2714639,Na21 Hf6 Sc6 Si9 P9 O72,4.4629,{'mp-2714639': <CalcType.GGA_Structure_Optimization: 'GGA Structure Optimization'>}
mp-2714660,Na21 Y9 Ta3 Si9 P9 O72,3.2439,{'mp-2714660': <CalcType.GGA_Structure_Optimization: 'GGA Structure Optimization'>}
mp-2714641,Na9 Y3 Zr9 Si9 S9 O72,3.5101,{'mp-2714641': <CalcType.GGA_Structure_Optimization: 'GGA Structure Optimization'>}
mp-2714684,Na21 Hf6 Ga6 Si9 P9 O72,3.9446,{'mp-2714684': <CalcType.GGA_Structure_Optimization: 'GGA Structure Optimization'>}
mp-2714701,Na15 Hf3 Zn9 P9 S9 O72,3.807399999999999,{'mp-2714701': <CalcType.GGA_Structure_Optimization: 'GGA Structure Optimization'>}
mp-2714704,Na9 Hf9 In3 Si9 S9 O72,3.7895000000000003,{'mp-2714704': <CalcType.GGA_Structure_Optimization: 'GGA Structure Optimization'>}
mp-2714709,Na21 Mg3 Si9 Sn9 P9 O72,2.4775,{'mp-2714709': <CalcType.GGA_Structure_Optimization: 'GGA Structure Optimization'>}
mp-2714571,Na21 Ta6 Ga6 Si15 P3 O72,3.3745000000000003,{'mp-2714571': <CalcType.GGA_Structure_Optimization: 'GGA Structure Optimization'>}
mp-2714599,Na21 Ca6 Mg6 P9 S9 O72,4.2936,{'mp-2714599': <CalcType.GGA_Structure_Optimization: 'GGA Structure Optimization'>}
mp-2714609,Na6 Mg6 Ti6 Si3 S15 O72,1.1267,{'mp-2714609': <CalcType.GGA_Structure_Optimization: 'GGA Structure Optimization'>}
mp-2714633,Na21 Mg3 Ti9 Si9 P9 O72,2.2218,{'mp-2714633': <CalcType.GGA_Structure_Optimization: 'GGA Structure Optimization'>}
mp-2714644,Na9 Hf9 Al3 Si9 S9 O72,4.3584,{'mp-2714644': <CalcType.GGA_Structure_Optimization: 'GGA Structure Optimization'>}
mp-2714564,Na18 Ca3 Si12 Ge9 S6 O72,1.0271,{'mp-2714564': <CalcType.GGA_Structure_Optimization: 'GGA Structure Optimization'>}
mp-2714575,Na6 Al6 Ga6 Si3 S15 O72,1.7165,{'mp-2714575': <CalcType.GGA_Structure_Optimization: 'GGA Structure Optimization'>}
mp-2714576,Na18 Sc9 Ta3 Si12 S6 O72,2.9568000000000003,{'mp-2714576': <CalcType.GGA_Structure_Optimization: 'GGA Structure Optimization'>}
mp-2714577,Na9 Ta6 Nb6 Si15 P3 O72,2.956,{'mp-2714577': <CalcType.GGA_Structure_Optimization: 'GGA Structure Optimization'>}
mp-2714615,Na6 Zr6 Zn6 Si3 S15 O72,2.4994,{'mp-2714615': <CalcType.GGA_Structure_Optimization: 'GGA Structure Optimization'>}
mp-2714628,Na9 Ti9 Ga3 Si9 S9 O72,2.2794,{'mp-2714628': <CalcType.GGA_Structure_Optimization: 'GGA Structure Optimization'>}
mp-2714658,Na15 Zn9 Ge3 P9 S9 O72,1.63,{'mp-2714658': <CalcType.GGA_Structure_Optimization: 'GGA Structure Optimization'>}
mp-2714666,Na9 Zr9 Sc3 Si9 S9 O72,3.608599999999999,{'mp-2714666': <CalcType.GGA_Structure_Optimization: 'GGA Structure Optimization'>}
mp-2714679,Na21 Hf9 Mg3 Si9 P9 O72,4.0755,{'mp-2714679': <CalcType.GGA_Structure_Optimization: 'GGA Structure Optimization'>}
mp-2714699,Na9 Y3 Si9 Ge9 S9 O72,1.5178,{'mp-2714699': <CalcType.GGA_Structure_Optimization: 'GGA Structure Optimization'>}
mp-2714649,Na21 Y6 Si9 Sn6 P9 O72,3.0995,{'mp-2714649': <CalcType.GGA_Structure_Optimization: 'GGA Structure Optimization'>}
mp-2714686,Na21 La6 Ti6 Si9 P9 O72,2.5122,{'mp-2714686': <CalcType.GGA_Structure_Optimization: 'GGA Structure Optimization'>}
mp-2714700,Na21 Mg6 Ta6 Si9 P9 O72,2.6798,{'mp-2714700': <CalcType.GGA_Structure_Optimization: 'GGA Structure Optimization'>}
mp-2714710,Na21 Y9 Nb3 Si9 P9 O72,2.2394,{'mp-2714710': <CalcType.GGA_Structure_Optimization: 'GGA Structure Optimization'>}
mp-2714719,Na9 Y3 Hf9 Si9 S9 O72,4.2455,{'mp-2714719': <CalcType.GGA_Structure_Optimization: 'GGA Structure Optimization'>}
mp-2714735,Na21 Sc9 Ta3 Si9 P9 O72,3.1148,{'mp-2714735': <CalcType.GGA_Structure_Optimization: 'GGA Structure Optimization'>}
mp-2714794,Na21 Al6 Si9 Sn6 P9 O72,3.4368,{'mp-2714794': <CalcType.GGA_Structure_Optimization: 'GGA Structure Optimization'>}
mp-2714797,Na21 La6 Si9 Ge6 P9 O72,2.8146,{'mp-2714797': <CalcType.GGA_Structure_Optimization: 'GGA Structure Optimization'>}
mp-2714721,Na15 Ca6 Al6 P9 S9 O72,3.9086,{'mp-2714721': <CalcType.GGA_Structure_Optimization: 'GGA Structure Optimization'>}
mp-2714759,Na15 Zn6 In6 P9 S9 O72,3.2649,{'mp-2714759': <CalcType.GGA_Structure_Optimization: 'GGA Structure Optimization'>}
mp-2714765,Na15 Ca6 La6 P9 S9 O72,4.2679,{'mp-2714765': <CalcType.GGA_Structure_Optimization: 'GGA Structure Optimization'>}
mp-2714771,Na21 Mg3 Zr9 Si9 P9 O72,3.9101,{'mp-2714771': <CalcType.GGA_Structure_Optimization: 'GGA Structure Optimization'>}
mp-2714723,Na9 La3 Hf9 Si9 S9 O72,4.1396,{'mp-2714723': <CalcType.GGA_Structure_Optimization: 'GGA Structure Optimization'>}
mp-2714731,Na9 Y3 Si9 Sn9 S9 O72,1.7445,{'mp-2714731': <CalcType.GGA_Structure_Optimization: 'GGA Structure Optimization'>}
mp-2714776,Na21 In6 Si9 Ge6 P9 O72,3.004499999999999,{'mp-2714776': <CalcType.GGA_Structure_Optimization: 'GGA Structure Optimization'>}
mp-2714788,Na21 Y6 Si9 Ge6 P9 O72,3.011299999999999,{'mp-2714788': <CalcType.GGA_Structure_Optimization: 'GGA Structure Optimization'>}
mp-2714796,Na9 Ga3 Si9 Ge9 S9 O72,2.1595,{'mp-2714796': <CalcType.GGA_Structure_Optimization: 'GGA Structure Optimization'>}
mp-2714826,Na15 Sc6 Zn6 P9 S9 O72,4.0581,{'mp-2714826': <CalcType.GGA_Structure_Optimization: 'GGA Structure Optimization'>}
mp-2714743,Na21 Y6 Zr6 Si9 P9 O72,4.112500000000001,{'mp-2714743': <CalcType.GGA_Structure_Optimization: 'GGA Structure Optimization'>}
mp-2714779,Na9 Al3 Si9 Sn9 S9 O72,2.1767,{'mp-2714779': <CalcType.GGA_Structure_Optimization: 'GGA Structure Optimization'>}
mp-2714831,Na15 Zn9 Sn3 P9 S9 O72,2.152599999999999,{'mp-2714831': <CalcType.GGA_Structure_Optimization: 'GGA Structure Optimization'>}
mp-2714839,Na9 Y3 Ti9 Si9 S9 O72,2.173199999999999,{'mp-2714839': <CalcType.GGA_Structure_Optimization: 'GGA Structure Optimization'>}
mp-2714802,Na15 Mg6 In6 P9 S9 O72,3.2744,{'mp-2714802': <CalcType.GGA_Structure_Optimization: 'GGA Structure Optimization'>}
mp-2714733,Na21 Ga6 Si9 Sn6 P9 O72,3.250099999999999,{'mp-2714733': <CalcType.GGA_Structure_Optimization: 'GGA Structure Optimization'>}
mp-2714751,Na21 Ti6 Ga6 Si9 P9 O72,2.6586,{'mp-2714751': <CalcType.GGA_Structure_Optimization: 'GGA Structure Optimization'>}
mp-2714837,Na15 Ca9 Hf3 P9 S9 O72,3.9816000000000003,{'mp-2714837': <CalcType.GGA_Structure_Optimization: 'GGA Structure Optimization'>}
mp-2714840,Na15 Mg9 Ti3 P9 S9 O72,1.4497,{'mp-2714840': <CalcType.GGA_Structure_Optimization: 'GGA Structure Optimization'>}
mp-2714842,Na21 Ti9 Zn3 Si9 P9 O72,2.224199999999999,{'mp-2714842': <CalcType.GGA_Structure_Optimization: 'GGA Structure Optimization'>}
mp-2714809,Na15 Mg6 Ga6 P9 S9 O72,3.2798,{'mp-2714809': <CalcType.GGA_Structure_Optimization: 'GGA Structure Optimization'>}
mp-2714833,Na21 Ta3 Ga9 Si9 P9 O72,3.1526,{'mp-2714833': <CalcType.GGA_Structure_Optimization: 'GGA Structure Optimization'>}
mp-2714720,Na15 Mg9 Ge3 P9 S9 O72,1.7695,{'mp-2714720': <CalcType.GGA_Structure_Optimization: 'GGA Structure Optimization'>}
mp-2714730,Na21 Y6 Ti6 Si9 P9 O72,2.5991,{'mp-2714730': <CalcType.GGA_Structure_Optimization: 'GGA Structure Optimization'>}
mp-2714778,Na9 Zr9 Ga3 Si9 S9 O72,3.7119,{'mp-2714778': <CalcType.GGA_Structure_Optimization: 'GGA Structure Optimization'>}
mp-2714801,Na21 Mg6 Nb6 Si9 P9 O72,1.8189000000000002,{'mp-2714801': <CalcType.GGA_Structure_Optimization: 'GGA Structure Optimization'>}
mp-2714758,Na15 Zn6 Ga6 P9 S9 O72,3.1086,{'mp-2714758': <CalcType.GGA_Structure_Optimization: 'GGA Structure Optimization'>}
mp-2714766,Na9 Zr9 Al3 Si9 S9 O72,3.6371,{'mp-2714766': <CalcType.GGA_Structure_Optimization: 'GGA Structure Optimization'>}
mp-2714777,Na15 Ca6 Sc6 P9 S9 O72,3.6361,{'mp-2714777': <CalcType.GGA_Structure_Optimization: 'GGA Structure Optimization'>}
mp-2714790,Na9 Hf9 Sc3 Si9 S9 O72,4.2711,{'mp-2714790': <CalcType.GGA_Structure_Optimization: 'GGA Structure Optimization'>}
mp-2714728,Na21 La6 Hf6 Si9 P9 O72,4.073,{'mp-2714728': <CalcType.GGA_Structure_Optimization: 'GGA Structure Optimization'>}
mp-2714740,Na21 Ca6 Nb6 Si9 P9 O72,1.851399999999999,{'mp-2714740': <CalcType.GGA_Structure_Optimization: 'GGA Structure Optimization'>}
mp-2714741,Na9 Sc3 Ti9 Si9 S9 O72,2.1618,{'mp-2714741': <CalcType.GGA_Structure_Optimization: 'GGA Structure Optimization'>}
mp-2714800,Na21 Nb3 Al9 Si9 P9 O72,2.2193,{'mp-2714800': <CalcType.GGA_Structure_Optimization: 'GGA Structure Optimization'>}
mp-2714806,Na9 Zr9 In3 Si9 S9 O72,3.3716,{'mp-2714806': <CalcType.GGA_Structure_Optimization: 'GGA Structure Optimization'>}
mp-2714811,Na9 In3 Si9 Ge9 S9 O72,0.08569999999999901,{'mp-2714811': <CalcType.GGA_Structure_Optimization: 'GGA Structure Optimization'>}
mp-2714816,Na15 Zr3 Zn9 P9 S9 O72,3.1391,{'mp-2714816': <CalcType.GGA_Structure_Optimization: 'GGA Structure Optimization'>}
mp-2714827,Na21 Mg3 Si9 Ge9 P9 O72,2.2678000000000003,{'mp-2714827': <CalcType.GGA_Structure_Optimization: 'GGA Structure Optimization'>}
mp-2714858,Na21 Ca6 Ta6 Si9 P9 O72,2.6769,{'mp-2714858': <CalcType.GGA_Structure_Optimization: 'GGA Structure Optimization'>}
mp-2714862,Na21 Sc6 Si9 Ge6 P9 O72,3.2396,{'mp-2714862': <CalcType.GGA_Structure_Optimization: 'GGA Structure Optimization'>}
mp-2714906,Na21 Sc6 Ti6 Si9 P9 O72,2.6256,{'mp-2714906': <CalcType.GGA_Structure_Optimization: 'GGA Structure Optimization'>}
mp-2714855,Na15 Y6 Mg6 P9 S9 O72,4.3818,{'mp-2714855': <CalcType.GGA_Structure_Optimization: 'GGA Structure Optimization'>}
mp-2714898,Na15 Ca9 Ge3 P9 S9 O72,1.2671000000000001,{'mp-2714898': <CalcType.GGA_Structure_Optimization: 'GGA Structure Optimization'>}
mp-2714912,Na15 Ca9 Zr3 P9 S9 O72,3.0656,{'mp-2714912': <CalcType.GGA_Structure_Optimization: 'GGA Structure Optimization'>}
mp-2714910,Na21 La6 Si9 Sn6 P9 O72,2.7819000000000003,{'mp-2714910': <CalcType.GGA_Structure_Optimization: 'GGA Structure Optimization'>}
mp-2714920,Na9 Ti9 In3 Si9 S9 O72,2.1531000000000002,{'mp-2714920': <CalcType.GGA_Structure_Optimization: 'GGA Structure Optimization'>}
mp-2714891,Na9 La3 Ti9 Si9 S9 O72,2.0824,{'mp-2714891': <CalcType.GGA_Structure_Optimization: 'GGA Structure Optimization'>}
mp-2714894,Na15 Ca9 Sn3 P9 S9 O72,1.777499999999999,{'mp-2714894': <CalcType.GGA_Structure_Optimization: 'GGA Structure Optimization'>}
mp-2714899,Na21 Zr6 Sc6 Si9 P9 O72,4.3622,{'mp-2714899': <CalcType.GGA_Structure_Optimization: 'GGA Structure Optimization'>}
mp-2714917,Na9 La3 Zr9 Si9 S9 O72,3.4771,{'mp-2714917': <CalcType.GGA_Structure_Optimization: 'GGA Structure Optimization'>}
mp-2714848,Na21 In6 Si9 Sn6 P9 O72,2.9648,{'mp-2714848': <CalcType.GGA_Structure_Optimization: 'GGA Structure Optimization'>}
mp-2714904,Na9 Al3 Si9 Ge9 S9 O72,2.2239,{'mp-2714904': <CalcType.GGA_Structure_Optimization: 'GGA Structure Optimization'>}
mp-2714922,Na15 Al6 In6 P15 S3 O72,3.9866,{'mp-2714922': <CalcType.GGA_Structure_Optimization: 'GGA Structure Optimization'>}
mp-2714872,Na15 La6 Zn6 P9 S9 O72,3.3195,{'mp-2714872': <CalcType.GGA_Structure_Optimization: 'GGA Structure Optimization'>}
mp-2714907,Na15 Y6 Zn6 P9 S9 O72,3.815,{'mp-2714907': <CalcType.GGA_Structure_Optimization: 'GGA Structure Optimization'>}
mp-2714908,Na21 Ca3 Ti9 Si9 P9 O72,2.034,{'mp-2714908': <CalcType.GGA_Structure_Optimization: 'GGA Structure Optimization'>}
mp-2714909,Na15 La6 Mg6 P9 S9 O72,4.212999999999999,{'mp-2714909': <CalcType.GGA_Structure_Optimization: 'GGA Structure Optimization'>}
mp-2714850,Na15 Ca6 Y6 P9 S9 O72,4.3309,{'mp-2714850': <CalcType.GGA_Structure_Optimization: 'GGA Structure Optimization'>}
mp-2714856,Na15 Mg9 Sn3 P9 S9 O72,2.1624,{'mp-2714856': <CalcType.GGA_Structure_Optimization: 'GGA Structure Optimization'>}
mp-2714864,Na15 Ca9 Ti3 P9 S9 O72,1.6296,{'mp-2714864': <CalcType.GGA_Structure_Optimization: 'GGA Structure Optimization'>}
mp-2714923,Na21 Nb3 In9 Si9 P9 O72,2.3845,{'mp-2714923': <CalcType.GGA_Structure_Optimization: 'GGA Structure Optimization'>}
mp-2714876,Na21 Hf6 In6 Si9 P9 O72,3.2096,{'mp-2714876': <CalcType.GGA_Structure_Optimization: 'GGA Structure Optimization'>}
mp-2714879,Na9 Hf9 Ga3 Si9 S9 O72,3.9587,{'mp-2714879': <CalcType.GGA_Structure_Optimization: 'GGA Structure Optimization'>}
mp-2714900,Na15 Al6 Zn6 P9 S9 O72,4.2959,{'mp-2714900': <CalcType.GGA_Structure_Optimization: 'GGA Structure Optimization'>}
mp-2714921,Na24 Mg9 Si9 Sn3 S9 O72,1.701899999999999,{'mp-2714921': <CalcType.GGA_Structure_Optimization: 'GGA Structure Optimization'>}
mp-2714952,Na24 Ca9 Ti3 Si9 S9 O72,1.6197,{'mp-2714952': <CalcType.GGA_Structure_Optimization: 'GGA Structure Optimization'>}
mp-2714960,Na21 Ta3 In9 Si9 P9 O72,2.4663999999999993,{'mp-2714960': <CalcType.GGA_Structure_Optimization: 'GGA Structure Optimization'>}
mp-2714975,Na15 Ti6 Zn6 P15 S3 O72,1.7887,{'mp-2714975': <CalcType.GGA_Structure_Optimization: 'GGA Structure Optimization'>}
mp-2714977,Na15 La6 Y6 P15 S3 O72,4.335199999999999,{'mp-2714977': <CalcType.GGA_Structure_Optimization: 'GGA Structure Optimization'>}
mp-2714954,Na21 Zr9 Zn3 Si9 P9 O72,3.8736,{'mp-2714954': <CalcType.GGA_Structure_Optimization: 'GGA Structure Optimization'>}
mp-2714995,Na21 Ti6 In6 Si9 P9 O72,2.6207000000000003,{'mp-2714995': <CalcType.GGA_Structure_Optimization: 'GGA Structure Optimization'>}