Material ID,Composition,Band Gap,Calc Types
mp-649756,Ag4 As4 S24 N16 O8 F24,1.8836,"{'mp-715362': <CalcType.GGA_NSCF_Line: 'GGA NSCF Line'>, 'mp-684431': <CalcType.GGA_Static: 'GGA Static'>, 'mp-705316': <CalcType.GGA_NSCF_Line: 'GGA NSCF Line'>, 'mp-649756': <CalcType.GGA_Structure_Optimization: 'GGA Structure Optimization'>, 'mp-1324216': <CalcType.GGA_Static: 'GGA Static'>}"
mp-1200704,H112 C40 S8 N24 Cl8 O16,2.8692,{'mp-1200704': <CalcType.GGA_Structure_Optimization: 'GGA Structure Optimization'>}
mp-1201000,In8 H80 C16 Se8 Cl24 O16,3.3684,"{'mp-1201000': <CalcType.GGA_Structure_Optimization: 'GGA Structure Optimization'>, 'mp-1238044': <CalcType.GGA_Structure_Optimization: 'GGA Structure Optimization'>, 'mp-1366268': <CalcType.GGA_Static: 'GGA Static'>}"
mp-722686,Si4 H40 C8 N16 O8 F24,5.5609,"{'mp-734810': <CalcType.GGA_Static: 'GGA Static'>, 'mp-738393': <CalcType.GGA_NSCF_Line: 'GGA NSCF Line'>, 'mp-722686': <CalcType.GGA_Structure_Optimization: 'GGA Structure Optimization'>, 'mp-1134222': <CalcType.GGA_Structure_Optimization: 'GGA Structure Optimization'>, 'mp-1261099': <CalcType.GGA_NMR_Electric_Field_Gradient: 'GGA NMR Electric Field Gradient'>, 'mp-1262694': <CalcType.GGA_NMR_Nuclear_Shielding: 'GGA NMR Nuclear Shielding'>, 'mp-1263078': <CalcType.GGA_Structure_Optimization: 'GGA Structure Optimization'>, 'mp-1328686': <CalcType.GGA_Static: 'GGA Static'>, 'mp-1845885': <CalcType.GGA_Static: 'GGA Static'>, 'mp-745865': <CalcType.GGA_NSCF_Line: 'GGA NSCF Line'>}"
mp-707368,K8 P16 H64 S8 N56 O16,4.7374,"{'mp-728695': <CalcType.GGA_Static: 'GGA Static'>, 'mp-733336': <CalcType.GGA_NSCF_Line: 'GGA NSCF Line'>, 'mp-707368': <CalcType.GGA_Structure_Optimization: 'GGA Structure Optimization'>, 'mp-1366331': <CalcType.GGA_Static: 'GGA Static'>, 'mp-737301': <CalcType.GGA_NSCF_Line: 'GGA NSCF Line'>}"
mp-1180373,Ni4 H56 C12 N4 Cl12 O8,0.0,"{'mp-1180373': <CalcType.GGA_U_Structure_Optimization: 'GGA+U Structure Optimization'>, 'mp-1365728': <CalcType.GGA_U_Static: 'GGA+U Static'>, 'mp-1845272': <CalcType.GGA_U_Static: 'GGA+U Static'>}"
mp-1195132,Si16 Mo4 H144 C48 N8 O8,3.6819,"{'mp-1195132': <CalcType.GGA_U_Structure_Optimization: 'GGA+U Structure Optimization'>, 'mp-1982039': <CalcType.GGA_U_Static: 'GGA+U Static'>}"
mp-1204099,Bi4 H56 C16 N32 Cl20 O8,3.5429,"{'mp-1204099': <CalcType.GGA_Structure_Optimization: 'GGA Structure Optimization'>, 'mp-1982166': <CalcType.GGA_Static: 'GGA Static'>}"
mp-1203010,Li4 H16 C4 S4 N4 O8,4.0282,"{'mp-1203010': <CalcType.GGA_Structure_Optimization: 'GGA Structure Optimization'>, 'mp-1824080': <CalcType.GGA_Static: 'GGA Static'>, 'mp-1987296': <CalcType.GGA_Static: 'GGA Static'>}"
mp-1203898,Cu4 H16 C8 S8 N8 O8,0.0088,"{'mp-1203898': <CalcType.GGA_Structure_Optimization: 'GGA Structure Optimization'>, 'mp-1887716': <CalcType.GGA_Static: 'GGA Static'>, 'mp-1983607': <CalcType.GGA_Static: 'GGA Static'>}"
mp-555728,H24 C12 S4 N12 O8 F12,2.1838,"{'mp-657341': <CalcType.GGA_Static: 'GGA Static'>, 'mp-672502': <CalcType.GGA_NSCF_Line: 'GGA NSCF Line'>, 'mp-555728': <CalcType.GGA_Structure_Optimization: 'GGA Structure Optimization'>, 'mp-1352347': <CalcType.GGA_Static: 'GGA Static'>, 'mp-1680846': <CalcType.GGA_NSCF_Uniform: 'GGA NSCF Uniform'>, 'mp-1877207': <CalcType.GGA_Static: 'GGA Static'>, 'mp-694398': <CalcType.GGA_NSCF_Line: 'GGA NSCF Line'>}"
mp-600189,Mn4 H56 C12 N4 Cl12 O8,4.0383,"{'mp-600501': <CalcType.GGA_U_Structure_Optimization: 'GGA+U Structure Optimization'>, 'mp-796548': <CalcType.GGA_U_Static: 'GGA+U Static'>, 'mp-819692': <CalcType.GGA_U_NSCF_Line: 'GGA+U NSCF Line'>, 'mp-834510': <CalcType.GGA_NSCF_Line: 'GGA NSCF Line'>, 'mp-825307': <CalcType.GGA_Static: 'GGA Static'>, 'mp-600189': <CalcType.GGA_Structure_Optimization: 'GGA Structure Optimization'>, 'mp-655071': <CalcType.GGA_Static: 'GGA Static'>, 'mp-1364666': <CalcType.GGA_U_Static: 'GGA+U Static'>, 'mp-1849055': <CalcType.GGA_U_Static: 'GGA+U Static'>}"
mp-600212,Ni4 H56 C12 N4 Cl12 O8,3.4908,"{'mp-796546': <CalcType.GGA_U_Static: 'GGA+U Static'>, 'mp-600519': <CalcType.GGA_U_Structure_Optimization: 'GGA+U Structure Optimization'>, 'mp-819678': <CalcType.GGA_U_NSCF_Line: 'GGA+U NSCF Line'>, 'mp-834512': <CalcType.GGA_NSCF_Line: 'GGA NSCF Line'>, 'mp-825308': <CalcType.GGA_Static: 'GGA Static'>, 'mp-600212': <CalcType.GGA_Structure_Optimization: 'GGA Structure Optimization'>, 'mp-655060': <CalcType.GGA_Static: 'GGA Static'>, 'mp-1327187': <CalcType.GGA_U_Static: 'GGA+U Static'>, 'mp-1848447': <CalcType.GGA_U_Static: 'GGA+U Static'>}"
mp-600221,Fe4 H56 C12 Br12 N4 O8,3.8008,"{'mp-600524': <CalcType.GGA_U_Structure_Optimization: 'GGA+U Structure Optimization'>, 'mp-796544': <CalcType.GGA_U_Static: 'GGA+U Static'>, 'mp-819688': <CalcType.GGA_U_NSCF_Line: 'GGA+U NSCF Line'>, 'mp-834511': <CalcType.GGA_NSCF_Line: 'GGA NSCF Line'>, 'mp-825309': <CalcType.GGA_Static: 'GGA Static'>, 'mp-600221': <CalcType.GGA_Structure_Optimization: 'GGA Structure Optimization'>, 'mp-655077': <CalcType.GGA_Static: 'GGA Static'>, 'mp-1327755': <CalcType.GGA_U_Static: 'GGA+U Static'>, 'mp-1850051': <CalcType.GGA_U_Static: 'GGA+U Static'>}"
mp-558736,H12 C4 S4 N4 Cl8 O8,2.6715,"{'mp-657192': <CalcType.GGA_Static: 'GGA Static'>, 'mp-677924': <CalcType.GGA_NSCF_Line: 'GGA NSCF Line'>, 'mp-662710': <CalcType.GGA_NSCF_Line: 'GGA NSCF Line'>, 'mp-558736': <CalcType.GGA_Structure_Optimization: 'GGA Structure Optimization'>, 'mp-1372326': <CalcType.GGA_Static: 'GGA Static'>, 'mp-1891673': <CalcType.GGA_Static: 'GGA Static'>}"
mp-600233,Co4 H56 C12 N4 Cl12 O8,2.6371,"{'mp-795647': <CalcType.GGA_U_Static: 'GGA+U Static'>, 'mp-796401': <CalcType.GGA_U_NSCF_Line: 'GGA+U NSCF Line'>, 'mp-600527': <CalcType.GGA_U_Structure_Optimization: 'GGA+U Structure Optimization'>, 'mp-825339': <CalcType.GGA_Static: 'GGA Static'>, 'mp-655087': <CalcType.GGA_Static: 'GGA Static'>, 'mp-600233': <CalcType.GGA_Structure_Optimization: 'GGA Structure Optimization'>, 'mp-835003': <CalcType.GGA_NSCF_Line: 'GGA NSCF Line'>, 'mp-1328186': <CalcType.GGA_U_Static: 'GGA+U Static'>, 'mp-1845456': <CalcType.GGA_U_Static: 'GGA+U Static'>}"
mp-773113,H48 Ru4 S4 N16 Cl8 O8,1.8784,"{'mp-773113': <CalcType.GGA_Structure_Optimization: 'GGA Structure Optimization'>, 'mp-853337': <CalcType.GGA_Static: 'GGA Static'>, 'mp-861774': <CalcType.GGA_NSCF_Line: 'GGA NSCF Line'>, 'mp-1328382': <CalcType.GGA_Static: 'GGA Static'>, 'mp-1844842': <CalcType.GGA_Static: 'GGA Static'>, 'mp-862527': <CalcType.GGA_NSCF_Line: 'GGA NSCF Line'>}"
mp-735597,K16 H16 W4 C32 N32 O8,3.074,"{'mp-818275': <CalcType.GGA_U_Static: 'GGA+U Static'>, 'mp-735597': <CalcType.GGA_U_Structure_Optimization: 'GGA+U Structure Optimization'>, 'mp-824066': <CalcType.GGA_U_NSCF_Line: 'GGA+U NSCF Line'>, 'mp-834373': <CalcType.GGA_Static: 'GGA Static'>, 'mp-841105': <CalcType.GGA_NSCF_Line: 'GGA NSCF Line'>, 'mp-1336388': <CalcType.GGA_U_Static: 'GGA+U Static'>, 'mp-841651': <CalcType.GGA_NSCF_Line: 'GGA NSCF Line'>, 'mp-824896': <CalcType.GGA_U_NSCF_Line: 'GGA+U NSCF Line'>}"
mp-1238663,Mn4 H48 C8 N4 Cl12 O8,0.46780000000000005,"{'mp-1238663': <CalcType.GGA_U_Structure_Optimization: 'GGA+U Structure Optimization'>, 'mp-1336315': <CalcType.GGA_U_Static: 'GGA+U Static'>}"
mp-1180863,Mn4 H48 C8 N4 Cl12 O8,3.9702,"{'mp-1180863': <CalcType.GGA_U_Structure_Optimization: 'GGA+U Structure Optimization'>, 'mp-1850887': <CalcType.GGA_U_Static: 'GGA+U Static'>, 'mp-1987519': <CalcType.GGA_U_Static: 'GGA+U Static'>}"
mp-744831,Mn4 H48 C8 N4 Cl12 O8,0.0,"{'mp-818665': <CalcType.GGA_U_Static: 'GGA+U Static'>, 'mp-744831': <CalcType.GGA_U_Structure_Optimization: 'GGA+U Structure Optimization'>, 'mp-824778': <CalcType.GGA_U_NSCF_Line: 'GGA+U NSCF Line'>, 'mp-1365928': <CalcType.GGA_U_Static: 'GGA+U Static'>, 'mp-825214': <CalcType.GGA_U_NSCF_Line: 'GGA+U NSCF Line'>}"
mp-723282,Cs2 C8 S8 N16 O4 F2,2.1873,"{'mp-1181828': <CalcType.GGA_Structure_Optimization: 'GGA Structure Optimization'>, 'mp-723282': <CalcType.GGA_Static: 'GGA Static'>, 'mp-731154': <CalcType.GGA_NSCF_Line: 'GGA NSCF Line'>, 'mp-1351410': <CalcType.GGA_Static: 'GGA Static'>, 'mp-1685084': <CalcType.GGA_NSCF_Uniform: 'GGA NSCF Uniform'>, 'mp-1919703': <CalcType.GGA_Static: 'GGA Static'>, 'mp-736800': <CalcType.GGA_NSCF_Line: 'GGA NSCF Line'>}"
mp-1227953,Ba1 Na2 Sr6 Al6 O2 F32,0.8469000000000001,"{'mp-1227953': <CalcType.GGA_Structure_Optimization: 'GGA Structure Optimization'>, 'mp-1351094': <CalcType.GGA_Static: 'GGA Static'>, 'mp-1891778': <CalcType.GGA_Static: 'GGA Static'>}"
mp-2240507,Sr2 Mg1 Cu1 Ag2 S2 O2,0.0,{'mp-2240507': <CalcType.GGA_Structure_Optimization: 'GGA Structure Optimization'>}
mp-2231705,Cs2 Mg1 Ti2 Cu2 O2 F10,0.5483,{'mp-2231705': <CalcType.GGA_Structure_Optimization: 'GGA Structure Optimization'>}
mp-1197532,Cd4 H22 C4 N2 Cl10 O4,0.23240000000000002,"{'mp-1197532': <CalcType.GGA_Structure_Optimization: 'GGA Structure Optimization'>, 'mp-1237961': <CalcType.GGA_Structure_Optimization: 'GGA Structure Optimization'>, 'mp-1372423': <CalcType.GGA_Static: 'GGA Static'>, 'mp-1886814': <CalcType.GGA_Static: 'GGA Static'>}"
mp-1195210,H36 Ir2 C12 S6 Cl6 O6,2.6683,"{'mp-1195210': <CalcType.GGA_Structure_Optimization: 'GGA Structure Optimization'>, 'mp-1349470': <CalcType.GGA_Static: 'GGA Static'>, 'mp-1682417': <CalcType.GGA_NSCF_Uniform: 'GGA NSCF Uniform'>, 'mp-1846700': <CalcType.GGA_Static: 'GGA Static'>}"
mp-1228185,Ga8 As16 H102 C32 S36 O3,2.5993,{'mp-1228185': <CalcType.GGA_Structure_Optimization: 'GGA Structure Optimization'>}
mp-720100,Na2 H36 C18 I2 N6 O6,0.168499999999999,"{'mp-720100': <CalcType.GGA_Structure_Optimization: 'GGA Structure Optimization'>, 'mp-938671': <CalcType.GGA_Static: 'GGA Static'>, 'mp-948858': <CalcType.GGA_NSCF_Line: 'GGA NSCF Line'>, 'mp-949399': <CalcType.GGA_NSCF_Line: 'GGA NSCF Line'>, 'mp-1363765': <CalcType.GGA_Static: 'GGA Static'>, 'mp-1844381': <CalcType.GGA_Static: 'GGA Static'>}"
mp-1191084,Na4 Mn2 P2 H2 O6 F8,2.994099999999999,"{'mp-1191084': <CalcType.GGA_U_Structure_Optimization: 'GGA+U Structure Optimization'>, 'mp-1284613': <CalcType.GGA_U_Structure_Optimization: 'GGA+U Structure Optimization'>, 'mp-1316782': <CalcType.GGA_U_Structure_Optimization: 'GGA+U Structure Optimization'>, 'mp-1314726': <CalcType.GGA_U_Structure_Optimization: 'GGA+U Structure Optimization'>, 'mp-1302852': <CalcType.GGA_U_Static: 'GGA+U Static'>, 'mp-1308153': <CalcType.GGA_U_Static: 'GGA+U Static'>, 'mp-1304457': <CalcType.GGA_U_Static: 'GGA+U Static'>, 'mp-1302326': <CalcType.GGA_U_Static: 'GGA+U Static'>, 'mp-1306824': <CalcType.GGA_U_Static: 'GGA+U Static'>, 'mp-1312849': <CalcType.GGA_U_Structure_Optimization: 'GGA+U Structure Optimization'>, 'mp-1317388': <CalcType.GGA_U_Structure_Optimization: 'GGA+U Structure Optimization'>, 'mp-1428733': <CalcType.GGA_U_Static: 'GGA+U Static'>, 'mp-1707762': <CalcType.GGA_U_NSCF_Uniform: 'GGA+U NSCF Uniform'>, 'mp-1773870': <CalcType.GGA_U_Static: 'GGA+U Static'>, 'mp-1605611': <CalcType.GGA_U_NSCF_Line: 'GGA+U NSCF Line'>, 'mp-2170917': <CalcType.GGA_U_NSCF_Line: 'GGA+U NSCF Line'>, 'mp-2685993': <CalcType.GGA_U_NSCF_Line: 'GGA+U NSCF Line'>}"
mp-698134,K4 Na4 Sb4 H12 O6 F20,4.6516,"{'mp-698134': <CalcType.GGA_Structure_Optimization: 'GGA Structure Optimization'>, 'mp-860527': <CalcType.GGA_NSCF_Line: 'GGA NSCF Line'>, 'mp-726423': <CalcType.GGA_Static: 'GGA Static'>, 'mp-1379007': <CalcType.GGA_Static: 'GGA Static'>, 'mp-1935900': <CalcType.GGA_Static: 'GGA Static'>, 'mp-747388': <CalcType.GGA_NSCF_Line: 'GGA NSCF Line'>, 'mp-860774': <CalcType.GGA_NSCF_Line: 'GGA NSCF Line'>}"
mp-707729,Ba2 H12 C4 S4 N4 O6,4.1044,"{'mp-733352': <CalcType.GGA_NSCF_Line: 'GGA NSCF Line'>, 'mp-728867': <CalcType.GGA_Static: 'GGA Static'>, 'mp-707729': <CalcType.GGA_Structure_Optimization: 'GGA Structure Optimization'>, 'mp-1395064': <CalcType.GGA_Static: 'GGA Static'>, 'mp-1753339': <CalcType.GGA_NSCF_Uniform: 'GGA NSCF Uniform'>, 'mp-1824029': <CalcType.GGA_Static: 'GGA Static'>, 'mp-737059': <CalcType.GGA_NSCF_Line: 'GGA NSCF Line'>, 'mp-1618938': <CalcType.GGA_NSCF_Line: 'GGA NSCF Line'>, 'mp-2105490': <CalcType.GGA_NSCF_Line: 'GGA NSCF Line'>, 'mp-2303221': <CalcType.GGA_NSCF_Line: 'GGA NSCF Line'>}"
mp-1181798,K4 Na4 Ti4 H8 O12 F16,0.6515000000000001,"{'mp-1181798': <CalcType.GGA_Structure_Optimization: 'GGA Structure Optimization'>, 'mp-1872884': <CalcType.GGA_Static: 'GGA Static'>}"
mp-1194781,B40 H56 C40 S4 O12 F24,4.337199999999999,"{'mp-1194781': <CalcType.GGA_Structure_Optimization: 'GGA Structure Optimization'>, 'mp-1982554': <CalcType.GGA_Static: 'GGA Static'>}"
mp-1197191,Mn4 P4 H16 N4 O12 F12,1.5509,"{'mp-1197191': <CalcType.GGA_U_Structure_Optimization: 'GGA+U Structure Optimization'>, 'mp-1198113': <CalcType.GGA_U_Structure_Optimization: 'GGA+U Structure Optimization'>, 'mp-1930718': <CalcType.GGA_U_Static: 'GGA+U Static'>, 'mp-1987769': <CalcType.GGA_U_Static: 'GGA+U Static'>}"
mp-1198748,Co4 H72 Br8 N24 Cl4 O12,2.9453,"{'mp-1198748': <CalcType.GGA_U_Structure_Optimization: 'GGA+U Structure Optimization'>, 'mp-1238167': <CalcType.GGA_U_Structure_Optimization: 'GGA+U Structure Optimization'>, 'mp-1338589': <CalcType.GGA_U_Static: 'GGA+U Static'>, 'mp-1850752': <CalcType.GGA_U_Static: 'GGA+U Static'>}"
mp-1198811,Ca4 Hg4 C16 S16 N16 O12,0.0,"{'mp-1198811': <CalcType.GGA_Structure_Optimization: 'GGA Structure Optimization'>, 'mp-1329303': <CalcType.GGA_Static: 'GGA Static'>}"
mp-1201229,Si4 H8 C4 S4 O12 F12,5.5535,"{'mp-1201229': <CalcType.GGA_Structure_Optimization: 'GGA Structure Optimization'>, 'mp-1347517': <CalcType.GGA_Static: 'GGA Static'>, 'mp-1681848': <CalcType.GGA_NSCF_Uniform: 'GGA NSCF Uniform'>, 'mp-1879721': <CalcType.GGA_Static: 'GGA Static'>}"
mp-1212264,K4 Na4 Ti4 H8 O12 F16,2.6546000000000003,"{'mp-1212264': <CalcType.GGA_Structure_Optimization: 'GGA Structure Optimization'>, 'mp-1238096': <CalcType.GGA_Structure_Optimization: 'GGA Structure Optimization'>, 'mp-1350512': <CalcType.GGA_Static: 'GGA Static'>, 'mp-1680859': <CalcType.GGA_NSCF_Uniform: 'GGA NSCF Uniform'>, 'mp-1935844': <CalcType.GGA_Static: 'GGA Static'>}"
mp-1211545,K4 Li4 P4 H12 O12 F4,1.4546000000000001,"{'mp-1211545': <CalcType.GGA_Structure_Optimization: 'GGA Structure Optimization'>, 'mp-1379131': <CalcType.GGA_Static: 'GGA Static'>, 'mp-1825109': <CalcType.GGA_Static: 'GGA Static'>}"
mp-23777,H32 C12 S4 N4 O12 F12,5.8094,"{'mp-860110': <CalcType.GGA_NSCF_Line: 'GGA NSCF Line'>, 'mp-726731': <CalcType.GGA_Static: 'GGA Static'>, 'mp-23777': <CalcType.GGA_Structure_Optimization: 'GGA Structure Optimization'>, 'mp-1350713': <CalcType.GGA_Static: 'GGA Static'>, 'mp-748288': <CalcType.GGA_NSCF_Line: 'GGA NSCF Line'>, 'mp-1681782': <CalcType.GGA_NSCF_Uniform: 'GGA NSCF Uniform'>, 'mp-1920300': <CalcType.GGA_Static: 'GGA Static'>}"
mp-555080,P4 H28 C4 N12 O12 F4,5.151899999999999,"{'mp-662909': <CalcType.GGA_NSCF_Line: 'GGA NSCF Line'>, 'mp-657253': <CalcType.GGA_Static: 'GGA Static'>, 'mp-555080': <CalcType.GGA_Structure_Optimization: 'GGA Structure Optimization'>, 'mp-678108': <CalcType.GGA_NSCF_Line: 'GGA NSCF Line'>, 'mp-1354946': <CalcType.GGA_Static: 'GGA Static'>, 'mp-1891124': <CalcType.GGA_Static: 'GGA Static'>}"
mp-555329,C4 Se8 S8 N8 O12 F12,1.5162,"{'mp-731349': <CalcType.GGA_Static: 'GGA Static'>, 'mp-846436': <CalcType.GGA_NSCF_Line: 'GGA NSCF Line'>, 'mp-555329': <CalcType.GGA_Structure_Optimization: 'GGA Structure Optimization'>, 'mp-1355723': <CalcType.GGA_Static: 'GGA Static'>, 'mp-749525': <CalcType.GGA_NSCF_Line: 'GGA NSCF Line'>, 'mp-1679605': <CalcType.GGA_NSCF_Uniform: 'GGA NSCF Uniform'>, 'mp-1895922': <CalcType.GGA_Static: 'GGA Static'>}"
mp-556018,Li4 B4 H60 C20 N4 O12,4.083,"{'mp-997959': <CalcType.GGA_NSCF_Line: 'GGA NSCF Line'>, 'mp-656640': <CalcType.GGA_Static: 'GGA Static'>, 'mp-556018': <CalcType.GGA_Structure_Optimization: 'GGA Structure Optimization'>, 'mp-1330971': <CalcType.GGA_Static: 'GGA Static'>, 'mp-1011425': <CalcType.GGA_NSCF_Line: 'GGA NSCF Line'>, 'mp-1894547': <CalcType.GGA_Static: 'GGA Static'>, 'mp-1583758': <CalcType.GGA_NSCF_Line: 'GGA NSCF Line'>}"
mp-573080,As12 H36 Rh4 C12 Cl12 O12,2.3305,"{'mp-665625': <CalcType.GGA_NSCF_Line: 'GGA NSCF Line'>, 'mp-657898': <CalcType.GGA_Static: 'GGA Static'>, 'mp-680871': <CalcType.GGA_NSCF_Line: 'GGA NSCF Line'>, 'mp-573080': <CalcType.GGA_Structure_Optimization: 'GGA Structure Optimization'>, 'mp-1329432': <CalcType.GGA_Static: 'GGA Static'>}"
mp-600228,H32 Ru4 C20 N4 Cl12 O12,3.2895,"{'mp-600228': <CalcType.GGA_Structure_Optimization: 'GGA Structure Optimization'>, 'mp-656126': <CalcType.GGA_NSCF_Line: 'GGA NSCF Line'>, 'mp-654827': <CalcType.GGA_Static: 'GGA Static'>, 'mp-659398': <CalcType.GGA_NSCF_Line: 'GGA NSCF Line'>, 'mp-1364107': <CalcType.GGA_Static: 'GGA Static'>, 'mp-1846210': <CalcType.GGA_Static: 'GGA Static'>}"
mp-605173,As12 H36 Rh4 C12 Br12 O12,2.0079,"{'mp-665534': <CalcType.GGA_NSCF_Line: 'GGA NSCF Line'>, 'mp-680769': <CalcType.GGA_NSCF_Line: 'GGA NSCF Line'>, 'mp-657811': <CalcType.GGA_Static: 'GGA Static'>, 'mp-605173': <CalcType.GGA_Structure_Optimization: 'GGA Structure Optimization'>, 'mp-1327725': <CalcType.GGA_Static: 'GGA Static'>, 'mp-1583504': <CalcType.GGA_NSCF_Line: 'GGA NSCF Line'>}"
mp-605808,Ag8 H64 C32 S24 O24 F24,3.485299999999999,"{'mp-605808': <CalcType.GGA_Structure_Optimization: 'GGA Structure Optimization'>, 'mp-659113': <CalcType.GGA_Static: 'GGA Static'>, 'mp-684455': <CalcType.GGA_NSCF_Line: 'GGA NSCF Line'>, 'mp-1000115': <CalcType.GGA_NSCF_Line: 'GGA NSCF Line'>}"
mp-695900,Sb4 H4 C4 S4 O12 F32,4.5393,"{'mp-1333967': <CalcType.GGA_Static: 'GGA Static'>, 'mp-1894933': <CalcType.GGA_Static: 'GGA Static'>, 'mp-860073': <CalcType.GGA_NSCF_Line: 'GGA NSCF Line'>, 'mp-695900': <CalcType.GGA_Structure_Optimization: 'GGA Structure Optimization'>, 'mp-726310': <CalcType.GGA_Static: 'GGA Static'>, 'mp-747225': <CalcType.GGA_NSCF_Line: 'GGA NSCF Line'>}"
mp-707803,Cs8 H16 Ru4 N4 Cl20 O12,1.8073000000000001,"{'mp-707803': <CalcType.GGA_Structure_Optimization: 'GGA Structure Optimization'>, 'mp-1351984': <CalcType.GGA_Static: 'GGA Static'>}"
mp-707312,Sr4 H24 C8 S8 N8 O12,4.3983,"{'mp-728032': <CalcType.GGA_Static: 'GGA Static'>, 'mp-707312': <CalcType.GGA_Structure_Optimization: 'GGA Structure Optimization'>, 'mp-864137': <CalcType.GGA_NSCF_Line: 'GGA NSCF Line'>, 'mp-1360686': <CalcType.GGA_Static: 'GGA Static'>, 'mp-737282': <CalcType.GGA_NSCF_Line: 'GGA NSCF Line'>, 'mp-1895156': <CalcType.GGA_Static: 'GGA Static'>}"
mp-720554,Li4 P4 H16 N4 O12 F4,5.3152,"{'mp-843807': <CalcType.GGA_NSCF_Line: 'GGA NSCF Line'>, 'mp-734198': <CalcType.GGA_Static: 'GGA Static'>, 'mp-720554': <CalcType.GGA_Structure_Optimization: 'GGA Structure Optimization'>, 'mp-1407031': <CalcType.GGA_Static: 'GGA Static'>, 'mp-844750': <CalcType.GGA_NSCF_Line: 'GGA NSCF Line'>, 'mp-745724': <CalcType.GGA_NSCF_Line: 'GGA NSCF Line'>, 'mp-1819135': <CalcType.GGA_Static: 'GGA Static'>}"
mp-766204,Zn4 P4 H20 C8 N16 O12,4.6363,"{'mp-784964': <CalcType.GGA_Static: 'GGA Static'>, 'mp-766204': <CalcType.GGA_Structure_Optimization: 'GGA Structure Optimization'>, 'mp-844111': <CalcType.GGA_NSCF_Line: 'GGA NSCF Line'>, 'mp-1361423': <CalcType.GGA_Static: 'GGA Static'>, 'mp-789396': <CalcType.GGA_NSCF_Line: 'GGA NSCF Line'>, 'mp-1893915': <CalcType.GGA_Static: 'GGA Static'>}"
mp-1179994,Na6 H36 C6 S6 N6 O18,0.052700000000000004,"{'mp-1179994': <CalcType.GGA_Structure_Optimization: 'GGA Structure Optimization'>, 'mp-1330218': <CalcType.GGA_Static: 'GGA Static'>, 'mp-1894186': <CalcType.GGA_Static: 'GGA Static'>}"
mp-1199991,Na6 H36 C6 S6 N6 O18,2.9697,"{'mp-1199991': <CalcType.GGA_Structure_Optimization: 'GGA Structure Optimization'>, 'mp-1352276': <CalcType.GGA_Static: 'GGA Static'>, 'mp-1897496': <CalcType.GGA_Static: 'GGA Static'>}"