Material ID,Composition,Band Gap,Calc Types
mp-866302,Ba2 Na2 P6 H6 N6 O12,4.8274,"{'mp-866756': <CalcType.GGA_Static: 'GGA Static'>, 'mp-866302': <CalcType.GGA_Structure_Optimization: 'GGA Structure Optimization'>, 'mp-866765': <CalcType.GGA_NSCF_Line: 'GGA NSCF Line'>, 'mp-1384554': <CalcType.GGA_Static: 'GGA Static'>, 'mp-1753093': <CalcType.GGA_NSCF_Uniform: 'GGA NSCF Uniform'>, 'mp-1819511': <CalcType.GGA_Static: 'GGA Static'>, 'mp-1000380': <CalcType.GGA_NSCF_Line: 'GGA NSCF Line'>, 'mp-1620422': <CalcType.GGA_NSCF_Line: 'GGA NSCF Line'>, 'mp-2112654': <CalcType.GGA_NSCF_Line: 'GGA NSCF Line'>, 'mp-2304428': <CalcType.GGA_NSCF_Line: 'GGA NSCF Line'>}"
mp-863023,Rb2 Zn2 H4 Se4 Cl2 O12,4.3352,"{'mp-864529': <CalcType.GGA_NSCF_Line: 'GGA NSCF Line'>, 'mp-867375': <CalcType.GGA_Static: 'GGA Static'>, 'mp-863023': <CalcType.GGA_Static: 'GGA Static'>, 'mp-867129': <CalcType.GGA_Structure_Optimization: 'GGA Structure Optimization'>, 'mp-867429': <CalcType.GGA_NSCF_Line: 'GGA NSCF Line'>, 'mp-1420680': <CalcType.GGA_Static: 'GGA Static'>, 'mp-1763707': <CalcType.GGA_NSCF_Uniform: 'GGA NSCF Uniform'>, 'mp-1815793': <CalcType.GGA_Static: 'GGA Static'>, 'mp-1000367': <CalcType.GGA_NSCF_Line: 'GGA NSCF Line'>, 'mp-1609845': <CalcType.GGA_NSCF_Line: 'GGA NSCF Line'>, 'mp-2174252': <CalcType.GGA_NSCF_Line: 'GGA NSCF Line'>, 'mp-2607536': <CalcType.GGA_NSCF_Line: 'GGA NSCF Line'>}"
mp-863017,Rb2 Zn2 H4 Se4 Br2 O12,4.0088,"{'mp-867132': <CalcType.GGA_Structure_Optimization: 'GGA Structure Optimization'>, 'mp-867376': <CalcType.GGA_Static: 'GGA Static'>, 'mp-863017': <CalcType.GGA_Static: 'GGA Static'>, 'mp-867421': <CalcType.GGA_NSCF_Line: 'GGA NSCF Line'>, 'mp-864527': <CalcType.GGA_NSCF_Line: 'GGA NSCF Line'>, 'mp-1434031': <CalcType.GGA_Static: 'GGA Static'>, 'mp-1764132': <CalcType.GGA_NSCF_Uniform: 'GGA NSCF Uniform'>, 'mp-1816008': <CalcType.GGA_Static: 'GGA Static'>, 'mp-1000365': <CalcType.GGA_NSCF_Line: 'GGA NSCF Line'>, 'mp-1616508': <CalcType.GGA_NSCF_Line: 'GGA NSCF Line'>, 'mp-2165494': <CalcType.GGA_NSCF_Line: 'GGA NSCF Line'>, 'mp-2443787': <CalcType.GGA_NSCF_Line: 'GGA NSCF Line'>}"
mp-1194924,Ca4 H48 C8 N28 Cl4 O24,3.1666,"{'mp-1194924': <CalcType.GGA_Structure_Optimization: 'GGA Structure Optimization'>, 'mp-1849214': <CalcType.GGA_Static: 'GGA Static'>, 'mp-1986632': <CalcType.GGA_Static: 'GGA Static'>}"
mp-1194856,P12 H84 C36 S8 O24 F24,3.9067,"{'mp-1194856': <CalcType.GGA_Structure_Optimization: 'GGA Structure Optimization'>, 'mp-1986190': <CalcType.GGA_Static: 'GGA Static'>}"
mp-1195960,Ca2 H48 C12 Br4 N24 O12,4.6316,"{'mp-1195960': <CalcType.GGA_Structure_Optimization: 'GGA Structure Optimization'>, 'mp-1844844': <CalcType.GGA_Static: 'GGA Static'>, 'mp-1987654': <CalcType.GGA_Static: 'GGA Static'>, 'mp-2911648': <CalcType.r2SCAN_Structure_Optimization: 'r2SCAN Structure Optimization'>}"
mp-1196081,Li4 B4 H16 C8 O24 F8,3.4009,"{'mp-1196081': <CalcType.GGA_Structure_Optimization: 'GGA Structure Optimization'>, 'mp-1379192': <CalcType.GGA_Static: 'GGA Static'>, 'mp-1885600': <CalcType.GGA_Static: 'GGA Static'>}"
mp-1196506,Zr10 Si12 H72 C24 Br40 O12,2.181899999999999,{'mp-1196506': <CalcType.GGA_Structure_Optimization: 'GGA Structure Optimization'>}
mp-1197049,Cd2 H16 C4 S4 N12 O12,3.0108,"{'mp-1197049': <CalcType.GGA_Structure_Optimization: 'GGA Structure Optimization'>, 'mp-1876463': <CalcType.GGA_Static: 'GGA Static'>, 'mp-1986604': <CalcType.GGA_Static: 'GGA Static'>}"
mp-1197397,Co2 H28 C4 N20 Cl4 O12,1.7506,"{'mp-1197397': <CalcType.GGA_U_Structure_Optimization: 'GGA+U Structure Optimization'>, 'mp-1879079': <CalcType.GGA_U_Static: 'GGA+U Static'>, 'mp-1986722': <CalcType.GGA_U_Static: 'GGA+U Static'>}"
mp-1198264,Cu2 H28 C4 N20 Cl4 O12,1.079,"{'mp-1198264': <CalcType.GGA_Structure_Optimization: 'GGA Structure Optimization'>, 'mp-1888374': <CalcType.GGA_Static: 'GGA Static'>, 'mp-1985906': <CalcType.GGA_Static: 'GGA Static'>}"
mp-1198199,Na4 V4 Ni2 H8 O12 F12,2.7460999999999993,"{'mp-1198199': <CalcType.GGA_U_Structure_Optimization: 'GGA+U Structure Optimization'>, 'mp-1820263': <CalcType.GGA_U_Static: 'GGA+U Static'>, 'mp-1987571': <CalcType.GGA_U_Static: 'GGA+U Static'>}"
mp-1198181,Zn2 H28 C4 N20 Cl4 O12,3.2858,"{'mp-1198181': <CalcType.GGA_Structure_Optimization: 'GGA Structure Optimization'>, 'mp-1898971': <CalcType.GGA_Static: 'GGA Static'>, 'mp-1986796': <CalcType.GGA_Static: 'GGA Static'>}"
mp-1198491,Be4 Ni2 H40 N4 O12 F16,4.9841,"{'mp-1198491': <CalcType.GGA_U_Structure_Optimization: 'GGA+U Structure Optimization'>, 'mp-1239098': <CalcType.GGA_U_Structure_Optimization: 'GGA+U Structure Optimization'>, 'mp-1350509': <CalcType.GGA_U_Static: 'GGA+U Static'>, 'mp-1679763': <CalcType.GGA_U_NSCF_Uniform: 'GGA+U NSCF Uniform'>, 'mp-1868610': <CalcType.GGA_U_Static: 'GGA+U Static'>}"
mp-1199239,Cu4 P8 H28 C8 N4 O24,0.18529999999999902,"{'mp-1199239': <CalcType.GGA_Structure_Optimization: 'GGA Structure Optimization'>, 'mp-1238202': <CalcType.GGA_Structure_Optimization: 'GGA Structure Optimization'>, 'mp-1351062': <CalcType.GGA_Static: 'GGA Static'>, 'mp-1682001': <CalcType.GGA_NSCF_Uniform: 'GGA NSCF Uniform'>, 'mp-1886451': <CalcType.GGA_Static: 'GGA Static'>}"
mp-1199679,K4 Zr4 Ni2 H24 O12 F24,5.1419,"{'mp-1199679': <CalcType.GGA_U_Structure_Optimization: 'GGA+U Structure Optimization'>, 'mp-1238029': <CalcType.GGA_U_Structure_Optimization: 'GGA+U Structure Optimization'>, 'mp-1355270': <CalcType.GGA_U_Static: 'GGA+U Static'>, 'mp-1920429': <CalcType.GGA_U_Static: 'GGA+U Static'>}"
mp-1201285,Cd4 H64 C16 S16 N40 O24,3.1371,"{'mp-1201285': <CalcType.GGA_Structure_Optimization: 'GGA Structure Optimization'>, 'mp-1334810': <CalcType.GGA_Static: 'GGA Static'>}"
mp-1202313,Ni2 H28 C4 N20 Cl4 O12,3.1647,"{'mp-1202313': <CalcType.GGA_U_Structure_Optimization: 'GGA+U Structure Optimization'>, 'mp-1881585': <CalcType.GGA_U_Static: 'GGA+U Static'>, 'mp-1987100': <CalcType.GGA_U_Static: 'GGA+U Static'>}"
mp-1202149,Ag4 H12 Pd2 S4 N4 O12,1.894899999999999,"{'mp-1202149': <CalcType.GGA_Structure_Optimization: 'GGA Structure Optimization'>, 'mp-1820529': <CalcType.GGA_Static: 'GGA Static'>, 'mp-1984993': <CalcType.GGA_Static: 'GGA Static'>}"
mp-1203632,Na4 V4 Cu2 H8 O12 F12,0.7481,"{'mp-1203632': <CalcType.GGA_U_Structure_Optimization: 'GGA+U Structure Optimization'>, 'mp-1821612': <CalcType.GGA_U_Static: 'GGA+U Static'>, 'mp-1984979': <CalcType.GGA_U_Static: 'GGA+U Static'>}"
mp-1204384,Ag4 H40 S32 N32 Cl4 O24,0.308399999999999,"{'mp-1204384': <CalcType.GGA_Structure_Optimization: 'GGA Structure Optimization'>, 'mp-1238716': <CalcType.GGA_Structure_Optimization: 'GGA Structure Optimization'>, 'mp-1335925': <CalcType.GGA_Static: 'GGA Static'>}"
mp-1204582,Na4 V4 Co2 H8 O12 F12,2.1708,"{'mp-1204582': <CalcType.GGA_U_Structure_Optimization: 'GGA+U Structure Optimization'>, 'mp-1933454': <CalcType.GGA_U_Static: 'GGA+U Static'>, 'mp-1982603': <CalcType.GGA_U_Static: 'GGA+U Static'>}"
mp-1213275,H40 Pd4 C8 S8 N32 O24,2.25,"{'mp-1213275': <CalcType.GGA_Structure_Optimization: 'GGA Structure Optimization'>, 'mp-1336526': <CalcType.GGA_Static: 'GGA Static'>, 'mp-1851490': <CalcType.GGA_Static: 'GGA Static'>}"
mp-24347,Be4 Co2 H40 N4 O12 F16,3.3104,"{'mp-818325': <CalcType.GGA_U_Static: 'GGA+U Static'>, 'mp-1021922': <CalcType.GGA_U_NSCF_Line: 'GGA+U NSCF Line'>, 'mp-824153': <CalcType.GGA_U_NSCF_Line: 'GGA+U NSCF Line'>, 'mp-25732': <CalcType.GGA_U_Structure_Optimization: 'GGA+U Structure Optimization'>, 'mp-1239290': <CalcType.GGA_U_Structure_Optimization: 'GGA+U Structure Optimization'>, 'mp-24347': <CalcType.GGA_Structure_Optimization: 'GGA Structure Optimization'>, 'mp-732247': <CalcType.GGA_Static: 'GGA Static'>, 'mp-841850': <CalcType.GGA_NSCF_Line: 'GGA NSCF Line'>, 'mp-824903': <CalcType.GGA_U_NSCF_Line: 'GGA+U NSCF Line'>, 'mp-839864': <CalcType.GGA_Static: 'GGA Static'>, 'mp-840946': <CalcType.GGA_NSCF_Line: 'GGA NSCF Line'>, 'mp-1887796': <CalcType.GGA_U_Static: 'GGA+U Static'>}"
mp-697946,Cs4 Zr4 Zn2 H24 O12 F24,4.2309,"{'mp-732335': <CalcType.GGA_Static: 'GGA Static'>, 'mp-843843': <CalcType.GGA_NSCF_Line: 'GGA NSCF Line'>, 'mp-697946': <CalcType.GGA_Structure_Optimization: 'GGA Structure Optimization'>, 'mp-1182564': <CalcType.GGA_Structure_Optimization: 'GGA Structure Optimization'>, 'mp-1352157': <CalcType.GGA_Static: 'GGA Static'>, 'mp-749532': <CalcType.GGA_NSCF_Line: 'GGA NSCF Line'>, 'mp-1683984': <CalcType.GGA_NSCF_Uniform: 'GGA NSCF Uniform'>, 'mp-1845424': <CalcType.GGA_Static: 'GGA Static'>}"
mp-703426,Mg2 H40 C8 Br4 N16 O12,1.6018,"{'mp-703426': <CalcType.GGA_Structure_Optimization: 'GGA Structure Optimization'>, 'mp-727948': <CalcType.GGA_Static: 'GGA Static'>, 'mp-860605': <CalcType.GGA_NSCF_Line: 'GGA NSCF Line'>, 'mp-1326087': <CalcType.GGA_Static: 'GGA Static'>, 'mp-860903': <CalcType.GGA_NSCF_Line: 'GGA NSCF Line'>, 'mp-737366': <CalcType.GGA_NSCF_Line: 'GGA NSCF Line'>, 'mp-1848054': <CalcType.GGA_Static: 'GGA Static'>}"
mp-707219,K4 Zr4 Zn2 H24 O12 F24,5.1227,"{'mp-1365560': <CalcType.GGA_Static: 'GGA Static'>, 'mp-1920686': <CalcType.GGA_Static: 'GGA Static'>, 'mp-2911732': <CalcType.r2SCAN_Structure_Optimization: 'r2SCAN Structure Optimization'>, 'mp-728522': <CalcType.GGA_Static: 'GGA Static'>, 'mp-707219': <CalcType.GGA_Structure_Optimization: 'GGA Structure Optimization'>, 'mp-864138': <CalcType.GGA_NSCF_Line: 'GGA NSCF Line'>, 'mp-737699': <CalcType.GGA_NSCF_Line: 'GGA NSCF Line'>}"
mp-720829,V4 H32 C8 N8 O24 F4,3.136199999999999,"{'mp-804297': <CalcType.GGA_U_Static: 'GGA+U Static'>, 'mp-745044': <CalcType.GGA_U_Structure_Optimization: 'GGA+U Structure Optimization'>, 'mp-813188': <CalcType.GGA_U_NSCF_Line: 'GGA+U NSCF Line'>, 'mp-720829': <CalcType.GGA_Structure_Optimization: 'GGA Structure Optimization'>, 'mp-734275': <CalcType.GGA_Static: 'GGA Static'>, 'mp-1351462': <CalcType.GGA_U_Static: 'GGA+U Static'>, 'mp-813972': <CalcType.GGA_U_NSCF_Line: 'GGA+U NSCF Line'>, 'mp-841134': <CalcType.GGA_NSCF_Line: 'GGA NSCF Line'>, 'mp-824577': <CalcType.GGA_NSCF_Line: 'GGA NSCF Line'>, 'mp-823820': <CalcType.GGA_NSCF_Line: 'GGA NSCF Line'>, 'mp-840474': <CalcType.GGA_NSCF_Line: 'GGA NSCF Line'>, 'mp-1679795': <CalcType.GGA_U_NSCF_Uniform: 'GGA+U NSCF Uniform'>, 'mp-1908508': <CalcType.GGA_U_Static: 'GGA+U Static'>}"
mp-773079,Al4 Zn4 H64 N4 O24 F24,5.4816,"{'mp-853400': <CalcType.GGA_Static: 'GGA Static'>, 'mp-862084': <CalcType.GGA_NSCF_Line: 'GGA NSCF Line'>, 'mp-773079': <CalcType.GGA_Structure_Optimization: 'GGA Structure Optimization'>, 'mp-1255418': <CalcType.GGA_NMR_Nuclear_Shielding: 'GGA NMR Nuclear Shielding'>, 'mp-1255438': <CalcType.GGA_NMR_Electric_Field_Gradient: 'GGA NMR Electric Field Gradient'>, 'mp-1266641': <CalcType.GGA_Structure_Optimization: 'GGA Structure Optimization'>, 'mp-1334138': <CalcType.GGA_Static: 'GGA Static'>, 'mp-996095': <CalcType.GGA_NSCF_Line: 'GGA NSCF Line'>, 'mp-1844741': <CalcType.GGA_Static: 'GGA Static'>, 'mp-1629355': <CalcType.GGA_NSCF_Line: 'GGA NSCF Line'>}"
mp-773092,Al4 Ni4 H64 N4 O24 F24,5.667,"{'mp-773587': <CalcType.GGA_U_Structure_Optimization: 'GGA+U Structure Optimization'>, 'mp-804382': <CalcType.GGA_U_Static: 'GGA+U Static'>, 'mp-1252456': <CalcType.GGA_U_NMR_Electric_Field_Gradient: 'GGA+U NMR Electric Field Gradient'>, 'mp-1257609': <CalcType.GGA_U_Structure_Optimization: 'GGA+U Structure Optimization'>, 'mp-1261963': <CalcType.GGA_U_NMR_Nuclear_Shielding: 'GGA+U NMR Nuclear Shielding'>, 'mp-1366242': <CalcType.GGA_U_Static: 'GGA+U Static'>, 'mp-773092': <CalcType.GGA_Structure_Optimization: 'GGA Structure Optimization'>, 'mp-786537': <CalcType.GGA_Static: 'GGA Static'>, 'mp-1847498': <CalcType.GGA_U_Static: 'GGA+U Static'>, 'mp-1629181': <CalcType.GGA_U_NSCF_Line: 'GGA+U NSCF Line'>}"
mp-24279,Al1 H36 C12 S6 I3 O6,3.384,"{'mp-727199': <CalcType.GGA_Static: 'GGA Static'>, 'mp-739933': <CalcType.GGA_NSCF_Line: 'GGA NSCF Line'>, 'mp-24279': <CalcType.GGA_Structure_Optimization: 'GGA Structure Optimization'>, 'mp-1254445': <CalcType.GGA_Structure_Optimization: 'GGA Structure Optimization'>, 'mp-1255315': <CalcType.GGA_NMR_Electric_Field_Gradient: 'GGA NMR Electric Field Gradient'>, 'mp-1256108': <CalcType.GGA_NMR_Nuclear_Shielding: 'GGA NMR Nuclear Shielding'>, 'mp-1363474': <CalcType.GGA_Static: 'GGA Static'>, 'mp-1870300': <CalcType.GGA_Static: 'GGA Static'>, 'mp-747360': <CalcType.GGA_NSCF_Line: 'GGA NSCF Line'>}"
mp-1182632,Fe1 H36 C12 S6 Br3 O6,1.5168,"{'mp-1182632': <CalcType.GGA_U_Structure_Optimization: 'GGA+U Structure Optimization'>, 'mp-1363584': <CalcType.GGA_U_Static: 'GGA+U Static'>, 'mp-1897367': <CalcType.GGA_U_Static: 'GGA+U Static'>}"
mp-23830,Cr1 H36 C12 S6 Cl3 O6,2.6565000000000003,"{'mp-818323': <CalcType.GGA_U_Static: 'GGA+U Static'>, 'mp-824121': <CalcType.GGA_U_NSCF_Line: 'GGA+U NSCF Line'>, 'mp-25498': <CalcType.GGA_U_Structure_Optimization: 'GGA+U Structure Optimization'>, 'mp-1239338': <CalcType.GGA_U_Structure_Optimization: 'GGA+U Structure Optimization'>, 'mp-23830': <CalcType.GGA_Structure_Optimization: 'GGA Structure Optimization'>, 'mp-1878853': <CalcType.GGA_U_Static: 'GGA+U Static'>, 'mp-824900': <CalcType.GGA_U_NSCF_Line: 'GGA+U NSCF Line'>}"
mp-24280,Ga1 H36 C12 S6 I3 O6,3.052899999999999,"{'mp-742870': <CalcType.GGA_NSCF_Line: 'GGA NSCF Line'>, 'mp-731807': <CalcType.GGA_Static: 'GGA Static'>, 'mp-24280': <CalcType.GGA_Structure_Optimization: 'GGA Structure Optimization'>, 'mp-1328459': <CalcType.GGA_Static: 'GGA Static'>, 'mp-749713': <CalcType.GGA_NSCF_Line: 'GGA NSCF Line'>}"
mp-24281,In1 H36 C12 S6 I3 O6,2.5131,"{'mp-744984': <CalcType.GGA_Static: 'GGA Static'>, 'mp-749926': <CalcType.GGA_NSCF_Line: 'GGA NSCF Line'>, 'mp-24281': <CalcType.GGA_Structure_Optimization: 'GGA Structure Optimization'>, 'mp-1364172': <CalcType.GGA_Static: 'GGA Static'>, 'mp-1897500': <CalcType.GGA_Static: 'GGA Static'>, 'mp-750676': <CalcType.GGA_NSCF_Line: 'GGA NSCF Line'>}"
mp-24764,Al1 H36 C12 S6 Cl3 O6,3.8105,"{'mp-727868': <CalcType.GGA_Static: 'GGA Static'>, 'mp-732684': <CalcType.GGA_NSCF_Line: 'GGA NSCF Line'>, 'mp-24764': <CalcType.GGA_Structure_Optimization: 'GGA Structure Optimization'>, 'mp-1253771': <CalcType.GGA_NMR_Nuclear_Shielding: 'GGA NMR Nuclear Shielding'>, 'mp-1256498': <CalcType.GGA_NMR_Electric_Field_Gradient: 'GGA NMR Electric Field Gradient'>, 'mp-1267896': <CalcType.GGA_Structure_Optimization: 'GGA Structure Optimization'>, 'mp-1324854': <CalcType.GGA_Static: 'GGA Static'>, 'mp-1936683': <CalcType.GGA_Static: 'GGA Static'>, 'mp-737100': <CalcType.GGA_NSCF_Line: 'GGA NSCF Line'>}"
mp-766473,Ni1 H36 C12 S6 I4 O6,1.8746,"{'mp-802551': <CalcType.GGA_U_Static: 'GGA+U Static'>, 'mp-767845': <CalcType.GGA_U_Structure_Optimization: 'GGA+U Structure Optimization'>, 'mp-810075': <CalcType.GGA_U_NSCF_Line: 'GGA+U NSCF Line'>, 'mp-766473': <CalcType.GGA_Structure_Optimization: 'GGA Structure Optimization'>, 'mp-828224': <CalcType.GGA_Static: 'GGA Static'>, 'mp-830911': <CalcType.GGA_NSCF_Line: 'GGA NSCF Line'>, 'mp-1364560': <CalcType.GGA_U_Static: 'GGA+U Static'>, 'mp-1894972': <CalcType.GGA_U_Static: 'GGA+U Static'>, 'mp-831778': <CalcType.GGA_NSCF_Line: 'GGA NSCF Line'>, 'mp-810842': <CalcType.GGA_U_NSCF_Line: 'GGA+U NSCF Line'>}"
mp-1196356,Ni2 H48 C12 S12 N28 O12,2.6647,"{'mp-1196356': <CalcType.GGA_U_Structure_Optimization: 'GGA+U Structure Optimization'>, 'mp-1987414': <CalcType.GGA_U_Static: 'GGA+U Static'>}"
mp-1199368,Zn2 H20 C4 S4 N16 O12,3.4822,"{'mp-1199368': <CalcType.GGA_Structure_Optimization: 'GGA Structure Optimization'>, 'mp-1878167': <CalcType.GGA_Static: 'GGA Static'>, 'mp-1985209': <CalcType.GGA_Static: 'GGA Static'>}"
mp-698354,P6 H36 Os2 C12 S12 O12,0.2016,"{'mp-1002370': <CalcType.GGA_Static: 'GGA Static'>, 'mp-1003984': <CalcType.GGA_NSCF_Line: 'GGA NSCF Line'>, 'mp-698354': <CalcType.GGA_Structure_Optimization: 'GGA Structure Optimization'>, 'mp-1049113': <CalcType.GGA_Static: 'GGA Static'>, 'mp-1328165': <CalcType.GGA_Static: 'GGA Static'>, 'mp-1848187': <CalcType.GGA_Static: 'GGA Static'>, 'mp-1009367': <CalcType.GGA_NSCF_Line: 'GGA NSCF Line'>}"
mp-698125,Np2 H32 C8 N16 Cl2 O12,0.429299999999999,"{'mp-698125': <CalcType.GGA_Structure_Optimization: 'GGA Structure Optimization'>, 'mp-1049137': <CalcType.GGA_Static: 'GGA Static'>, 'mp-1361602': <CalcType.GGA_Static: 'GGA Static'>, 'mp-1887503': <CalcType.GGA_Static: 'GGA Static'>}"
mp-698364,P6 H36 Ru2 C12 S12 O12,0.15660000000000002,"{'mp-698364': <CalcType.GGA_Structure_Optimization: 'GGA Structure Optimization'>, 'mp-1002374': <CalcType.GGA_Static: 'GGA Static'>, 'mp-1003968': <CalcType.GGA_NSCF_Line: 'GGA NSCF Line'>, 'mp-1049117': <CalcType.GGA_Static: 'GGA Static'>, 'mp-1329694': <CalcType.GGA_Static: 'GGA Static'>, 'mp-1850872': <CalcType.GGA_Static: 'GGA Static'>}"
mp-735424,Ru4 C14 S20 N20 Cl16 O12,1.7207,"{'mp-738479': <CalcType.GGA_NSCF_Line: 'GGA NSCF Line'>, 'mp-735424': <CalcType.GGA_Static: 'GGA Static'>, 'mp-745609': <CalcType.GGA_NSCF_Line: 'GGA NSCF Line'>}"
mp-728403,Cr2 P6 H36 C12 S12 O12,2.6313,"{'mp-743545': <CalcType.GGA_U_Structure_Optimization: 'GGA+U Structure Optimization'>, 'mp-818496': <CalcType.GGA_U_Static: 'GGA+U Static'>, 'mp-824400': <CalcType.GGA_U_NSCF_Line: 'GGA+U NSCF Line'>, 'mp-728403': <CalcType.GGA_Static: 'GGA Static'>, 'mp-833817': <CalcType.GGA_Static: 'GGA Static'>, 'mp-840907': <CalcType.GGA_NSCF_Line: 'GGA NSCF Line'>, 'mp-1363722': <CalcType.GGA_U_Static: 'GGA+U Static'>, 'mp-1844301': <CalcType.GGA_U_Static: 'GGA+U Static'>, 'mp-841856': <CalcType.GGA_NSCF_Line: 'GGA NSCF Line'>, 'mp-825091': <CalcType.GGA_U_NSCF_Line: 'GGA+U NSCF Line'>}"
mp-723065,H4 C4 S6 N4 O12 F12,5.8985,"{'mp-745272': <CalcType.GGA_NSCF_Line: 'GGA NSCF Line'>, 'mp-723065': <CalcType.GGA_Structure_Optimization: 'GGA Structure Optimization'>, 'mp-736275': <CalcType.GGA_Static: 'GGA Static'>, 'mp-1335762': <CalcType.GGA_Static: 'GGA Static'>, 'mp-1933923': <CalcType.GGA_Static: 'GGA Static'>, 'mp-747264': <CalcType.GGA_NSCF_Line: 'GGA NSCF Line'>}"
mp-746355,Fe2 P6 H36 C12 S12 O12,1.7519,"{'mp-746355': <CalcType.GGA_U_Structure_Optimization: 'GGA+U Structure Optimization'>, 'mp-1049396': <CalcType.GGA_U_Static: 'GGA+U Static'>, 'mp-1049461': <CalcType.GGA_U_NSCF_Line: 'GGA+U NSCF Line'>, 'mp-1329910': <CalcType.GGA_U_Static: 'GGA+U Static'>, 'mp-1847526': <CalcType.GGA_U_Static: 'GGA+U Static'>, 'mp-1049551': <CalcType.GGA_U_NSCF_Line: 'GGA+U NSCF Line'>}"
mp-2240064,Sr1 La1 Mg1 Nb1 Zn1 O6,1.775999999999999,{'mp-2240064': <CalcType.GGA_Structure_Optimization: 'GGA Structure Optimization'>}
mp-1192840,K2 Zn4 Cd2 B4 O12 F2,2.7164,"{'mp-1192840': <CalcType.GGA_Structure_Optimization: 'GGA Structure Optimization'>, 'mp-1428470': <CalcType.GGA_Static: 'GGA Static'>, 'mp-1674834': <CalcType.GGA_NSCF_Uniform: 'GGA NSCF Uniform'>, 'mp-1837177': <CalcType.GGA_Static: 'GGA Static'>, 'mp-1605384': <CalcType.GGA_NSCF_Line: 'GGA NSCF Line'>, 'mp-2173656': <CalcType.GGA_NSCF_Line: 'GGA NSCF Line'>, 'mp-2328749': <CalcType.GGA_NSCF_Line: 'GGA NSCF Line'>}"
mp-1199814,Ni2 H96 C36 S12 N28 O12,2.7386,{'mp-1199814': <CalcType.GGA_U_Structure_Optimization: 'GGA+U Structure Optimization'>}
mp-1203248,Ti2 H48 C12 I6 N24 O12,0.0,"{'mp-1203248': <CalcType.GGA_Structure_Optimization: 'GGA Structure Optimization'>, 'mp-1237190': <CalcType.GGA_Structure_Optimization: 'GGA Structure Optimization'>, 'mp-1332153': <CalcType.GGA_Static: 'GGA Static'>}"
mp-1192391,Rb2 Li4 Cd2 C4 O12 F2,3.2753,"{'mp-1192391': <CalcType.GGA_Structure_Optimization: 'GGA Structure Optimization'>, 'mp-1434540': <CalcType.GGA_Static: 'GGA Static'>, 'mp-1675008': <CalcType.GGA_NSCF_Uniform: 'GGA NSCF Uniform'>, 'mp-1809774': <CalcType.GGA_Static: 'GGA Static'>}"
mp-1195186,Rb2 La4 C12 N12 Cl2 O12,4.103999999999999,"{'mp-1195186': <CalcType.GGA_Structure_Optimization: 'GGA Structure Optimization'>, 'mp-1344684': <CalcType.GGA_Static: 'GGA Static'>, 'mp-1681095': <CalcType.GGA_NSCF_Uniform: 'GGA NSCF Uniform'>, 'mp-1901591': <CalcType.GGA_Static: 'GGA Static'>, 'mp-2911915': <CalcType.r2SCAN_Structure_Optimization: 'r2SCAN Structure Optimization'>}"