Material ID,Composition,Band Gap,Calc Types
mp-1221240,Na8 Al4 Ga2 Si6 Br2 O24,4.3744,"{'mp-1221240': <CalcType.GGA_Structure_Optimization: 'GGA Structure Optimization'>, 'mp-1351883': <CalcType.GGA_Static: 'GGA Static'>, 'mp-1681473': <CalcType.GGA_NSCF_Uniform: 'GGA NSCF Uniform'>, 'mp-1890111': <CalcType.GGA_Static: 'GGA Static'>}"
mp-2712545,Na6 Y6 Si6 Sn6 S12 O72,1.1598,{'mp-2712545': <CalcType.GGA_Structure_Optimization: 'GGA Structure Optimization'>}
mp-2712539,Na6 Nb6 Zn6 P12 S6 O72,1.950199999999999,{'mp-2712539': <CalcType.GGA_Structure_Optimization: 'GGA Structure Optimization'>}
mp-2712548,Na18 Mg6 Ga6 P12 S6 O72,3.3709,{'mp-2712548': <CalcType.GGA_Structure_Optimization: 'GGA Structure Optimization'>}
mp-2712547,Na12 Nb6 Ga6 Si6 P12 O72,2.3899,{'mp-2712547': <CalcType.GGA_Structure_Optimization: 'GGA Structure Optimization'>}
mp-2712541,Na6 La6 Hf6 P12 S6 O72,4.1715,{'mp-2712541': <CalcType.GGA_Structure_Optimization: 'GGA Structure Optimization'>}
mp-2712555,Na6 Sc6 Si6 Ge6 S12 O72,1.3878,{'mp-2712555': <CalcType.GGA_Structure_Optimization: 'GGA Structure Optimization'>}
mp-2712549,Na18 Ca6 Al6 P12 S6 O72,4.0061,{'mp-2712549': <CalcType.GGA_Structure_Optimization: 'GGA Structure Optimization'>}
mp-2712553,Na12 Ta6 Al6 Si12 S6 O72,3.138099999999999,{'mp-2712553': <CalcType.GGA_Structure_Optimization: 'GGA Structure Optimization'>}
mp-2712550,Na6 In6 Si6 Sn6 S12 O72,1.469799999999999,{'mp-2712550': <CalcType.GGA_Structure_Optimization: 'GGA Structure Optimization'>}
mp-2712560,Na18 Mg6 Al6 P12 S6 O72,4.5554,{'mp-2712560': <CalcType.GGA_Structure_Optimization: 'GGA Structure Optimization'>}
mp-2712557,Na6 Y6 Si6 Ge6 S12 O72,0.544299999999999,{'mp-2712557': <CalcType.GGA_Structure_Optimization: 'GGA Structure Optimization'>}
mp-2712556,Na18 Y6 Mg6 P12 S6 O72,4.3849,{'mp-2712556': <CalcType.GGA_Structure_Optimization: 'GGA Structure Optimization'>}
mp-2712559,Na6 Sc6 Si6 Sn6 S12 O72,1.77,{'mp-2712559': <CalcType.GGA_Structure_Optimization: 'GGA Structure Optimization'>}
mp-2712571,Na18 Mg6 In6 Si6 S12 O72,2.143799999999999,{'mp-2712571': <CalcType.GGA_Structure_Optimization: 'GGA Structure Optimization'>}
mp-2712563,Na12 Nb6 In6 Si12 S6 O72,2.1455,{'mp-2712563': <CalcType.GGA_Structure_Optimization: 'GGA Structure Optimization'>}
mp-2712565,Na18 La6 Zn6 P12 S6 O72,3.5204,{'mp-2712565': <CalcType.GGA_Structure_Optimization: 'GGA Structure Optimization'>}
mp-2712567,Na6 Y6 Ti6 Si6 S12 O72,1.5904,{'mp-2712567': <CalcType.GGA_Structure_Optimization: 'GGA Structure Optimization'>}
mp-2712572,Na6 Sc6 Ge6 P12 S6 O72,1.7791000000000001,{'mp-2712572': <CalcType.GGA_Structure_Optimization: 'GGA Structure Optimization'>}
mp-2712566,Na12 Sc6 Ta6 Si12 S6 O72,2.9182,{'mp-2712566': <CalcType.GGA_Structure_Optimization: 'GGA Structure Optimization'>}
mp-2712573,Na18 La6 Mg6 P12 S6 O72,4.1684,{'mp-2712573': <CalcType.GGA_Structure_Optimization: 'GGA Structure Optimization'>}
mp-2712568,Na6 Zr6 In6 Si6 S12 O72,3.328299999999999,{'mp-2712568': <CalcType.GGA_Structure_Optimization: 'GGA Structure Optimization'>}
mp-2712578,Na6 In6 Ge6 P12 S6 O72,1.6619000000000002,{'mp-2712578': <CalcType.GGA_Structure_Optimization: 'GGA Structure Optimization'>}
mp-2712580,Na18 Ca6 Ga6 Si6 S12 O72,1.761299999999999,{'mp-2712580': <CalcType.GGA_Structure_Optimization: 'GGA Structure Optimization'>}
mp-2712576,Na12 Y6 Nb6 Si6 P12 O72,2.0321,{'mp-2712576': <CalcType.GGA_Structure_Optimization: 'GGA Structure Optimization'>}
mp-2712583,Na12 Nb6 Al6 Si6 P12 O72,2.4298,{'mp-2712583': <CalcType.GGA_Structure_Optimization: 'GGA Structure Optimization'>}
mp-2712582,Na6 Ca6 Nb6 Si6 S12 O72,0.7746999999999991,{'mp-2712582': <CalcType.GGA_Structure_Optimization: 'GGA Structure Optimization'>}
mp-2712588,Na18 Ca6 La6 Si6 S12 O72,3.5438,{'mp-2712588': <CalcType.GGA_Structure_Optimization: 'GGA Structure Optimization'>}
mp-2712591,Na6 Mg6 Nb6 P12 S6 O72,2.0962,{'mp-2712591': <CalcType.GGA_Structure_Optimization: 'GGA Structure Optimization'>}
mp-2712585,Na18 Sc6 Zn6 Si6 S12 O72,3.7872,{'mp-2712585': <CalcType.GGA_Structure_Optimization: 'GGA Structure Optimization'>}
mp-2712586,Na12 Sc6 Nb6 Si6 P12 O72,2.1904,{'mp-2712586': <CalcType.GGA_Structure_Optimization: 'GGA Structure Optimization'>}
mp-2712584,Na6 Zr6 Ga6 P12 S6 O72,3.603999999999999,{'mp-2712584': <CalcType.GGA_Structure_Optimization: 'GGA Structure Optimization'>}
mp-2712590,Na18 Ca6 Ga6 P12 S6 O72,2.6008,{'mp-2712590': <CalcType.GGA_Structure_Optimization: 'GGA Structure Optimization'>}
mp-2712593,Na18 Mg6 Al6 Si6 S12 O72,3.8284000000000002,{'mp-2712593': <CalcType.GGA_Structure_Optimization: 'GGA Structure Optimization'>}
mp-2712604,Na12 Sc6 Nb6 Si12 S6 O72,2.2407,{'mp-2712604': <CalcType.GGA_Structure_Optimization: 'GGA Structure Optimization'>}
mp-2712608,Na6 Hf6 Sc6 Si6 S12 O72,4.084899999999999,{'mp-2712608': <CalcType.GGA_Structure_Optimization: 'GGA Structure Optimization'>}
mp-2712605,Na6 Y6 Ti6 P12 S6 O72,2.0159,{'mp-2712605': <CalcType.GGA_Structure_Optimization: 'GGA Structure Optimization'>}
mp-2712602,Na6 Sc6 Ti6 Si6 S12 O72,1.9652999999999992,{'mp-2712602': <CalcType.GGA_Structure_Optimization: 'GGA Structure Optimization'>}
mp-2712606,Na6 Mg6 Nb6 Si6 S12 O72,1.0228,{'mp-2712606': <CalcType.GGA_Structure_Optimization: 'GGA Structure Optimization'>}
mp-2712595,Na6 Al6 Si6 Ge6 S12 O72,2.0735,{'mp-2712595': <CalcType.GGA_Structure_Optimization: 'GGA Structure Optimization'>}
mp-2712599,Na12 Ta6 Al6 Si6 P12 O72,3.2314,{'mp-2712599': <CalcType.GGA_Structure_Optimization: 'GGA Structure Optimization'>}
mp-2712612,Na6 Ta6 Zn6 Si6 S12 O72,1.7472999999999992,{'mp-2712612': <CalcType.GGA_Structure_Optimization: 'GGA Structure Optimization'>}
mp-2712609,Na6 Zr6 Ga6 Si6 S12 O72,3.4302,{'mp-2712609': <CalcType.GGA_Structure_Optimization: 'GGA Structure Optimization'>}
mp-2712615,Na6 Al6 Sn6 P12 S6 O72,3.191999999999999,{'mp-2712615': <CalcType.GGA_Structure_Optimization: 'GGA Structure Optimization'>}
mp-2712634,Na6 Zr6 Sc6 P12 S6 O72,3.9534000000000002,{'mp-2712634': <CalcType.GGA_Structure_Optimization: 'GGA Structure Optimization'>}
mp-2712618,Na6 Al6 Ge6 P12 S6 O72,2.7243,{'mp-2712618': <CalcType.GGA_Structure_Optimization: 'GGA Structure Optimization'>}
mp-2712613,Na12 Y6 Ta6 Si6 P12 O72,2.6586,{'mp-2712613': <CalcType.GGA_Structure_Optimization: 'GGA Structure Optimization'>}
mp-2712621,Na12 Ta6 Ga6 Si12 S6 O72,3.1696,{'mp-2712621': <CalcType.GGA_Structure_Optimization: 'GGA Structure Optimization'>}
mp-2712622,Na18 Zn6 Ga6 Si6 S12 O72,2.5594,{'mp-2712622': <CalcType.GGA_Structure_Optimization: 'GGA Structure Optimization'>}
mp-2712625,Na18 Ca6 Y6 P12 S6 O72,4.3769,{'mp-2712625': <CalcType.GGA_Structure_Optimization: 'GGA Structure Optimization'>}
mp-2712629,Na18 Zn6 In6 Si6 S12 O72,2.7377000000000002,{'mp-2712629': <CalcType.GGA_Structure_Optimization: 'GGA Structure Optimization'>}
mp-2712627,Na6 Hf6 Sc6 P12 S6 O72,4.5822,{'mp-2712627': <CalcType.GGA_Structure_Optimization: 'GGA Structure Optimization'>}
mp-2712633,Na6 Y6 Zr6 Si6 S12 O72,3.0139,{'mp-2712633': <CalcType.GGA_Structure_Optimization: 'GGA Structure Optimization'>}
mp-2712623,Na6 Zr6 Sc6 Si6 S12 O72,3.5185,{'mp-2712623': <CalcType.GGA_Structure_Optimization: 'GGA Structure Optimization'>}
mp-2712650,Na12 Ta6 In6 Si6 P12 O72,3.001299999999999,{'mp-2712650': <CalcType.GGA_Structure_Optimization: 'GGA Structure Optimization'>}
mp-2712640,Na6 Mg6 Ta6 P12 S6 O72,2.8298,{'mp-2712640': <CalcType.GGA_Structure_Optimization: 'GGA Structure Optimization'>}
mp-2712658,Na6 Ca6 Ta6 P12 S6 O72,2.5994,{'mp-2712658': <CalcType.GGA_Structure_Optimization: 'GGA Structure Optimization'>}
mp-2712642,Na6 La6 Ti6 Si6 S12 O72,1.471099999999999,{'mp-2712642': <CalcType.GGA_Structure_Optimization: 'GGA Structure Optimization'>}
mp-2712637,Na6 Ga6 Ge6 P12 S6 O72,2.297,{'mp-2712637': <CalcType.GGA_Structure_Optimization: 'GGA Structure Optimization'>}
mp-2712652,Na18 Zn6 Ga6 P12 S6 O72,2.8625,{'mp-2712652': <CalcType.GGA_Structure_Optimization: 'GGA Structure Optimization'>}
mp-2712647,Na12 Y6 Ta6 Si12 S6 O72,2.7117,{'mp-2712647': <CalcType.GGA_Structure_Optimization: 'GGA Structure Optimization'>}
mp-2712648,Na6 Ti6 Ga6 Si6 S12 O72,2.1205,{'mp-2712648': <CalcType.GGA_Structure_Optimization: 'GGA Structure Optimization'>}
mp-2712641,Na18 Mg6 Ga6 Si6 S12 O72,2.7683,{'mp-2712641': <CalcType.GGA_Structure_Optimization: 'GGA Structure Optimization'>}
mp-2712656,Na6 La6 Zr6 P12 S6 O72,3.4686,{'mp-2712656': <CalcType.GGA_Structure_Optimization: 'GGA Structure Optimization'>}
mp-2712670,Na18 Mg6 Sc6 Si6 S12 O72,3.7407999999999992,{'mp-2712670': <CalcType.GGA_Structure_Optimization: 'GGA Structure Optimization'>}
mp-2712685,Na6 Hf6 In6 P12 S6 O72,3.9542,{'mp-2712685': <CalcType.GGA_Structure_Optimization: 'GGA Structure Optimization'>}
mp-2712661,Na12 Sc6 Ta6 Si6 P12 O72,2.9823,{'mp-2712661': <CalcType.GGA_Structure_Optimization: 'GGA Structure Optimization'>}
mp-2712677,Na18 Ca6 Al6 Si6 S12 O72,3.0432,{'mp-2712677': <CalcType.GGA_Structure_Optimization: 'GGA Structure Optimization'>}
mp-2712662,Na18 Ca6 La6 P12 S6 O72,4.3041,{'mp-2712662': <CalcType.GGA_Structure_Optimization: 'GGA Structure Optimization'>}
mp-2712660,Na6 Ti6 Al6 P12 S6 O72,2.3985,{'mp-2712660': <CalcType.GGA_Structure_Optimization: 'GGA Structure Optimization'>}
mp-2712672,Na12 Ta6 In6 Si12 S6 O72,0.7275,{'mp-2712672': <CalcType.GGA_Structure_Optimization: 'GGA Structure Optimization'>}
mp-2712674,Na6 Sc6 Sn6 P12 S6 O72,2.4616,{'mp-2712674': <CalcType.GGA_Structure_Optimization: 'GGA Structure Optimization'>}
mp-2712687,Na6 Zr6 Al6 Si6 S12 O72,3.8914,{'mp-2712687': <CalcType.GGA_Structure_Optimization: 'GGA Structure Optimization'>}
mp-2712692,Na18 La6 Zn6 Si6 S12 O72,3.1156,{'mp-2712692': <CalcType.GGA_Structure_Optimization: 'GGA Structure Optimization'>}
mp-2712693,Na6 Hf6 In6 Si6 S12 O72,3.2497,{'mp-2712693': <CalcType.GGA_Structure_Optimization: 'GGA Structure Optimization'>}
mp-2712700,Na12 La6 Nb6 Si12 S6 O72,1.8621999999999992,{'mp-2712700': <CalcType.GGA_Structure_Optimization: 'GGA Structure Optimization'>}
mp-2712708,Na6 La6 Sn6 P12 S6 O72,1.678,{'mp-2712708': <CalcType.GGA_Structure_Optimization: 'GGA Structure Optimization'>}
mp-2712690,Na6 Hf6 Ga6 Si6 S12 O72,3.448899999999999,{'mp-2712690': <CalcType.GGA_Structure_Optimization: 'GGA Structure Optimization'>}
mp-2712688,Na6 La6 Si6 Ge6 S12 O72,0.8395,{'mp-2712688': <CalcType.GGA_Structure_Optimization: 'GGA Structure Optimization'>}
mp-2712709,Na18 Sc6 Zn6 P12 S6 O72,4.2364,{'mp-2712709': <CalcType.GGA_Structure_Optimization: 'GGA Structure Optimization'>}
mp-2712699,Na6 Ga6 Sn6 P12 S6 O72,2.9705,{'mp-2712699': <CalcType.GGA_Structure_Optimization: 'GGA Structure Optimization'>}
mp-2712697,Na6 Ti6 In6 Si6 S12 O72,1.6137000000000001,{'mp-2712697': <CalcType.GGA_Structure_Optimization: 'GGA Structure Optimization'>}
mp-2712722,Na12 Nb6 Ga6 Si12 S6 O72,2.4126,{'mp-2712722': <CalcType.GGA_Structure_Optimization: 'GGA Structure Optimization'>}
mp-2712712,Na18 Zn6 In6 P12 S6 O72,3.2720000000000002,{'mp-2712712': <CalcType.GGA_Structure_Optimization: 'GGA Structure Optimization'>}
mp-2712710,Na12 La6 Nb6 Si6 P12 O72,1.8202,{'mp-2712710': <CalcType.GGA_Structure_Optimization: 'GGA Structure Optimization'>}
mp-2712717,Na6 Ta6 Zn6 P12 S6 O72,2.7079999999999993,{'mp-2712717': <CalcType.GGA_Structure_Optimization: 'GGA Structure Optimization'>}
mp-2712737,Na6 Y6 Zr6 P12 S6 O72,3.7018,{'mp-2712737': <CalcType.GGA_Structure_Optimization: 'GGA Structure Optimization'>}
mp-2712742,Na18 Y6 Zn6 P12 S6 O72,3.8143000000000002,{'mp-2712742': <CalcType.GGA_Structure_Optimization: 'GGA Structure Optimization'>}
mp-2712713,Na6 Ga6 Si6 Ge6 S12 O72,1.823399999999999,{'mp-2712713': <CalcType.GGA_Structure_Optimization: 'GGA Structure Optimization'>}
mp-2712741,Na6 La6 Zr6 Si6 S12 O72,2.8665000000000003,{'mp-2712741': <CalcType.GGA_Structure_Optimization: 'GGA Structure Optimization'>}
mp-2712720,Na6 Mg6 Ta6 Si6 S12 O72,1.5418,{'mp-2712720': <CalcType.GGA_Structure_Optimization: 'GGA Structure Optimization'>}
mp-2712755,Na18 Ca6 In6 Si6 S12 O72,0.06580000000000001,{'mp-2712755': <CalcType.GGA_Structure_Optimization: 'GGA Structure Optimization'>}
mp-2712745,Na6 Zr6 In6 P12 S6 O72,1.391,{'mp-2712745': <CalcType.GGA_Structure_Optimization: 'GGA Structure Optimization'>}
mp-2712764,Na6 Ti6 Al6 Si6 S12 O72,2.169899999999999,{'mp-2712764': <CalcType.GGA_Structure_Optimization: 'GGA Structure Optimization'>}
mp-2712743,Na18 Ca6 Y6 Si6 S12 O72,3.6247,{'mp-2712743': <CalcType.GGA_Structure_Optimization: 'GGA Structure Optimization'>}
mp-2712757,Na6 Ca6 Ta6 Si6 S12 O72,1.2621,{'mp-2712757': <CalcType.GGA_Structure_Optimization: 'GGA Structure Optimization'>}
mp-2712747,Na6 La6 Ti6 P12 S6 O72,1.9884,{'mp-2712747': <CalcType.GGA_Structure_Optimization: 'GGA Structure Optimization'>}
mp-2712763,Na6 Ca6 Nb6 P12 S6 O72,1.8196999999999992,{'mp-2712763': <CalcType.GGA_Structure_Optimization: 'GGA Structure Optimization'>}
mp-2712754,Na6 La6 Ge6 P12 S6 O72,1.5206,{'mp-2712754': <CalcType.GGA_Structure_Optimization: 'GGA Structure Optimization'>}
mp-2712746,Na6 Ti6 Ga6 P12 S6 O72,2.2677,{'mp-2712746': <CalcType.GGA_Structure_Optimization: 'GGA Structure Optimization'>}
mp-2712749,Na6 Nb6 Zn6 Si6 S12 O72,1.1353,{'mp-2712749': <CalcType.GGA_Structure_Optimization: 'GGA Structure Optimization'>}
mp-2712772,Na6 In6 Sn6 P12 S6 O72,2.2761,{'mp-2712772': <CalcType.GGA_Structure_Optimization: 'GGA Structure Optimization'>}
mp-2712778,Na6 La6 Si6 Sn6 S12 O72,0.750799999999999,{'mp-2712778': <CalcType.GGA_Structure_Optimization: 'GGA Structure Optimization'>}
mp-2712774,Na12 Y6 Nb6 Si12 S6 O72,2.0773,{'mp-2712774': <CalcType.GGA_Structure_Optimization: 'GGA Structure Optimization'>}
mp-2712773,Na6 Ga6 Si6 Sn6 S12 O72,2.4245,{'mp-2712773': <CalcType.GGA_Structure_Optimization: 'GGA Structure Optimization'>}
mp-2712766,Na6 La6 Hf6 Si6 S12 O72,3.5288,{'mp-2712766': <CalcType.GGA_Structure_Optimization: 'GGA Structure Optimization'>}
mp-2712777,Na18 Ca6 Sc6 Si6 S12 O72,3.1857,{'mp-2712777': <CalcType.GGA_Structure_Optimization: 'GGA Structure Optimization'>}
mp-2712781,Na6 Sc6 Ti6 P12 S6 O72,2.1132,{'mp-2712781': <CalcType.GGA_Structure_Optimization: 'GGA Structure Optimization'>}
mp-2712765,Na6 Hf6 Al6 P12 S6 O72,4.9521,{'mp-2712765': <CalcType.GGA_Structure_Optimization: 'GGA Structure Optimization'>}
mp-2712775,Na18 Ca6 In6 P12 S6 O72,2.831,{'mp-2712775': <CalcType.GGA_Structure_Optimization: 'GGA Structure Optimization'>}
mp-2712776,Na12 Nb6 Al6 Si12 S6 O72,2.3891,{'mp-2712776': <CalcType.GGA_Structure_Optimization: 'GGA Structure Optimization'>}
mp-2712785,Na18 Y6 Zn6 Si6 S12 O72,3.4208,{'mp-2712785': <CalcType.GGA_Structure_Optimization: 'GGA Structure Optimization'>}
mp-2712784,Na18 Mg6 Sc6 P12 S6 O72,4.417199999999999,{'mp-2712784': <CalcType.GGA_Structure_Optimization: 'GGA Structure Optimization'>}
mp-2712782,Na6 Al6 Si6 Sn6 S12 O72,2.607199999999999,{'mp-2712782': <CalcType.GGA_Structure_Optimization: 'GGA Structure Optimization'>}
mp-2712790,Na18 Mg6 In6 P12 S6 O72,1.1781,{'mp-2712790': <CalcType.GGA_Structure_Optimization: 'GGA Structure Optimization'>}
mp-2712800,Na18 Y6 Mg6 Si6 S12 O72,3.7228,{'mp-2712800': <CalcType.GGA_Structure_Optimization: 'GGA Structure Optimization'>}
mp-2712792,Na6 Hf6 Ga6 P12 S6 O72,3.7575000000000003,{'mp-2712792': <CalcType.GGA_Structure_Optimization: 'GGA Structure Optimization'>}
mp-2712801,Na6 Y6 Sn6 P12 S6 O72,1.7948,{'mp-2712801': <CalcType.GGA_Structure_Optimization: 'GGA Structure Optimization'>}
mp-2712787,Na6 Y6 Hf6 P12 S6 O72,4.4556000000000004,{'mp-2712787': <CalcType.GGA_Structure_Optimization: 'GGA Structure Optimization'>}
mp-2712796,Na12 Ta6 Ga6 Si6 P12 O72,3.165999999999999,{'mp-2712796': <CalcType.GGA_Structure_Optimization: 'GGA Structure Optimization'>}
mp-2712802,Na18 La6 Mg6 Si6 S12 O72,3.5956,{'mp-2712802': <CalcType.GGA_Structure_Optimization: 'GGA Structure Optimization'>}
mp-2712804,Na6 Zr6 Al6 P12 S6 O72,4.2113,{'mp-2712804': <CalcType.GGA_Structure_Optimization: 'GGA Structure Optimization'>}
mp-2712816,Na12 La6 Ta6 Si6 P12 O72,2.4577,{'mp-2712816': <CalcType.GGA_Structure_Optimization: 'GGA Structure Optimization'>}
mp-2712807,Na12 Nb6 In6 Si6 P12 O72,2.1667,{'mp-2712807': <CalcType.GGA_Structure_Optimization: 'GGA Structure Optimization'>}
mp-2712811,Na18 Al6 Zn6 Si6 S12 O72,3.584199999999999,{'mp-2712811': <CalcType.GGA_Structure_Optimization: 'GGA Structure Optimization'>}
mp-2712808,Na12 La6 Ta6 Si12 S6 O72,2.4837,{'mp-2712808': <CalcType.GGA_Structure_Optimization: 'GGA Structure Optimization'>}
mp-2712817,Na6 Ti6 In6 P12 S6 O72,2.0907,{'mp-2712817': <CalcType.GGA_Structure_Optimization: 'GGA Structure Optimization'>}
mp-2712826,Na12 Zr6 Nb6 Si12 P6 O72,2.7008,{'mp-2712826': <CalcType.GGA_Structure_Optimization: 'GGA Structure Optimization'>}
mp-2712818,Na18 Ca6 Sc6 P12 S6 O72,3.9949000000000003,{'mp-2712818': <CalcType.GGA_Structure_Optimization: 'GGA Structure Optimization'>}
mp-2712812,Na18 Al6 Zn6 P12 S6 O72,4.0962,{'mp-2712812': <CalcType.GGA_Structure_Optimization: 'GGA Structure Optimization'>}
mp-2713031,Na12 Ti6 Nb6 Si12 P6 O72,2.743999999999999,{'mp-2713031': <CalcType.GGA_Structure_Optimization: 'GGA Structure Optimization'>}
mp-2713129,Na12 Mg6 In6 P6 S12 O72,3.2079,{'mp-2713129': <CalcType.GGA_Structure_Optimization: 'GGA Structure Optimization'>}
mp-2713226,Na12 Mg6 Zr6 Si6 S12 O72,2.9668,{'mp-2713226': <CalcType.GGA_Structure_Optimization: 'GGA Structure Optimization'>}
mp-2713122,Na12 Ca6 Y6 P6 S12 O72,4.322900000000001,{'mp-2713122': <CalcType.GGA_Structure_Optimization: 'GGA Structure Optimization'>}
mp-2713220,Na12 Zn6 Si6 Sn6 S12 O72,1.405399999999999,{'mp-2713220': <CalcType.GGA_Structure_Optimization: 'GGA Structure Optimization'>}
mp-2713127,Na12 Zn6 Ga6 P6 S12 O72,3.072199999999999,{'mp-2713127': <CalcType.GGA_Structure_Optimization: 'GGA Structure Optimization'>}
mp-2713124,Na12 Ca6 Ga6 P6 S12 O72,2.1123,{'mp-2713124': <CalcType.GGA_Structure_Optimization: 'GGA Structure Optimization'>}
mp-2713155,Na12 Ca6 Al6 P6 S12 O72,3.8617,{'mp-2713155': <CalcType.GGA_Structure_Optimization: 'GGA Structure Optimization'>}
mp-2713222,Na12 Ca6 Hf6 Si6 S12 O72,3.412099999999999,{'mp-2713222': <CalcType.GGA_Structure_Optimization: 'GGA Structure Optimization'>}
mp-2713258,Na12 Ca6 Zr6 P12 S6 O72,3.4746,{'mp-2713258': <CalcType.GGA_Structure_Optimization: 'GGA Structure Optimization'>}
mp-2713247,Na12 Ti6 Zn6 P12 S6 O72,2.0055,{'mp-2713247': <CalcType.GGA_Structure_Optimization: 'GGA Structure Optimization'>}
mp-2713239,Na12 Ca6 Ti6 P12 S6 O72,1.7982,{'mp-2713239': <CalcType.GGA_Structure_Optimization: 'GGA Structure Optimization'>}
mp-2713232,Na18 Sc6 Nb6 Si12 P6 O72,2.3669000000000002,{'mp-2713232': <CalcType.GGA_Structure_Optimization: 'GGA Structure Optimization'>}
mp-2713252,Na12 Zn6 Sn6 P12 S6 O72,2.0133,{'mp-2713252': <CalcType.GGA_Structure_Optimization: 'GGA Structure Optimization'>}
mp-2713241,Na12 Ca6 Ge6 P12 S6 O72,0.946399999999999,{'mp-2713241': <CalcType.GGA_Structure_Optimization: 'GGA Structure Optimization'>}
mp-2713260,Na36 Y12 Nb12 Si24 P12 O144,2.360999999999999,{'mp-2713260': <CalcType.GGA_Structure_Optimization: 'GGA Structure Optimization'>}
mp-2713259,Na12 Ca6 Zr6 Si6 S12 O72,2.609199999999999,{'mp-2713259': <CalcType.GGA_Structure_Optimization: 'GGA Structure Optimization'>}
mp-2713235,Na36 La12 Ta12 Si24 P12 O144,3.105299999999999,{'mp-2713235': <CalcType.GGA_Structure_Optimization: 'GGA Structure Optimization'>}
mp-2713269,Na18 Ta6 Al6 Si12 P6 O72,3.4289,{'mp-2713269': <CalcType.GGA_Structure_Optimization: 'GGA Structure Optimization'>}
mp-2713262,Na12 Zr6 Zn6 P12 S6 O72,3.7179,{'mp-2713262': <CalcType.GGA_Structure_Optimization: 'GGA Structure Optimization'>}
mp-2713289,Na36 Ta12 Al12 Si24 P12 O144,3.1219,{'mp-2713289': <CalcType.GGA_Structure_Optimization: 'GGA Structure Optimization'>}
mp-2713264,Na36 Sc12 Nb12 Si24 P12 O144,2.3418,{'mp-2713264': <CalcType.GGA_Structure_Optimization: 'GGA Structure Optimization'>}