Material ID,Composition,Band Gap,Calc Types
mp-2715451,Na18 Y9 Nb3 Si6 P12 O72,2.5572,{'mp-2715451': <CalcType.GGA_Structure_Optimization: 'GGA Structure Optimization'>}
mp-2715400,Na18 Zn3 Si6 Sn9 P12 O72,2.417499999999999,{'mp-2715400': <CalcType.GGA_Structure_Optimization: 'GGA Structure Optimization'>}
mp-2715407,Na18 Hf9 Mg3 Si6 P12 O72,4.2568,{'mp-2715407': <CalcType.GGA_Structure_Optimization: 'GGA Structure Optimization'>}
mp-2715420,Na12 Zn2 Si4 Sn6 P8 O48,2.512099999999999,{'mp-2715420': <CalcType.GGA_Structure_Optimization: 'GGA Structure Optimization'>}
mp-2715442,Na12 Ta2 Ga6 Si4 P8 O48,3.4168000000000003,{'mp-2715442': <CalcType.GGA_Structure_Optimization: 'GGA Structure Optimization'>}
mp-2715419,Na12 Mg2 Si4 Sn6 P8 O48,2.5967000000000002,{'mp-2715419': <CalcType.GGA_Structure_Optimization: 'GGA Structure Optimization'>}
mp-2715426,Na12 Ti6 Zn2 Si4 P8 O48,2.494399999999999,{'mp-2715426': <CalcType.GGA_Structure_Optimization: 'GGA Structure Optimization'>}
mp-2715506,Na12 Hf6 Zn2 Si4 P8 O48,4.495,{'mp-2715506': <CalcType.GGA_Structure_Optimization: 'GGA Structure Optimization'>}
mp-2715452,Na18 Nb3 Al9 Si6 P12 O72,2.4101,{'mp-2715452': <CalcType.GGA_Structure_Optimization: 'GGA Structure Optimization'>}
mp-2715511,Na18 Zn3 Si6 Ge9 P12 O72,2.3499,{'mp-2715511': <CalcType.GGA_Structure_Optimization: 'GGA Structure Optimization'>}
mp-2715462,Na12 Ca2 Hf6 Si4 P8 O48,4.5676,{'mp-2715462': <CalcType.GGA_Structure_Optimization: 'GGA Structure Optimization'>}
mp-2715484,Na12 Nb2 Ga6 Si4 P8 O48,2.597799999999999,{'mp-2715484': <CalcType.GGA_Structure_Optimization: 'GGA Structure Optimization'>}
mp-2715469,Na18 Nb3 In9 Si6 P12 O72,2.6252,{'mp-2715469': <CalcType.GGA_Structure_Optimization: 'GGA Structure Optimization'>}
mp-2715534,Na24 Mg3 Zr9 Si15 S3 O72,3.3272,{'mp-2715534': <CalcType.GGA_Structure_Optimization: 'GGA Structure Optimization'>}
mp-2715525,Na21 Al6 Ga6 Si3 P15 O72,4.0809,{'mp-2715525': <CalcType.GGA_Structure_Optimization: 'GGA Structure Optimization'>}
mp-2715529,Na24 Al6 Si15 Sn6 S3 O72,3.1276,{'mp-2715529': <CalcType.GGA_Structure_Optimization: 'GGA Structure Optimization'>}
mp-2715531,Na24 Y6 Zr6 Si15 S3 O72,3.9137,{'mp-2715531': <CalcType.GGA_Structure_Optimization: 'GGA Structure Optimization'>}
mp-2715532,Na21 Ca6 Si3 Sn6 P15 O72,1.4356,{'mp-2715532': <CalcType.GGA_Structure_Optimization: 'GGA Structure Optimization'>}
mp-2715541,Na6 Sc3 Nb9 Si12 S6 O72,1.8431000000000002,{'mp-2715541': <CalcType.GGA_Structure_Optimization: 'GGA Structure Optimization'>}
mp-2715539,Na21 Sc6 In6 Si3 P15 O72,3.7543,{'mp-2715539': <CalcType.GGA_Structure_Optimization: 'GGA Structure Optimization'>}
mp-2715543,Na21 Mg6 Zr6 Si3 P15 O72,3.7122,{'mp-2715543': <CalcType.GGA_Structure_Optimization: 'GGA Structure Optimization'>}
mp-2715540,Na6 Al6 In6 Si3 S15 O72,0.23090000000000002,{'mp-2715540': <CalcType.GGA_Structure_Optimization: 'GGA Structure Optimization'>}
mp-2715538,Na6 Nb9 Al3 Si12 S6 O72,1.7821,{'mp-2715538': <CalcType.GGA_Structure_Optimization: 'GGA Structure Optimization'>}
mp-2715546,Na3 Nb9 Ga3 Si3 P15 O72,2.301199999999999,{'mp-2715546': <CalcType.GGA_Structure_Optimization: 'GGA Structure Optimization'>}
mp-2715552,Na3 Ta6 Si3 Sn6 P15 O72,3.3306,{'mp-2715552': <CalcType.GGA_Structure_Optimization: 'GGA Structure Optimization'>}
mp-2715549,Na24 Zn3 Si12 Ge9 P6 O72,1.987299999999999,{'mp-2715549': <CalcType.GGA_Structure_Optimization: 'GGA Structure Optimization'>}
mp-2715550,Na24 Hf9 Zn3 Si12 P6 O72,3.7019,{'mp-2715550': <CalcType.GGA_Structure_Optimization: 'GGA Structure Optimization'>}
mp-2715555,Na3 Y3 Nb9 Si3 P15 O72,2.3909000000000002,{'mp-2715555': <CalcType.GGA_Structure_Optimization: 'GGA Structure Optimization'>}
mp-2715545,Na3 La3 Ta9 Si3 P15 O72,3.120199999999999,{'mp-2715545': <CalcType.GGA_Structure_Optimization: 'GGA Structure Optimization'>}
mp-2715567,Na24 Mg3 Si12 Ge9 P6 O72,2.209199999999999,{'mp-2715567': <CalcType.GGA_Structure_Optimization: 'GGA Structure Optimization'>}
mp-2715557,Na6 Nb9 In3 Si6 P12 O72,2.3707000000000003,{'mp-2715557': <CalcType.GGA_Structure_Optimization: 'GGA Structure Optimization'>}
mp-2715556,Na21 Hf6 Mg6 Si3 P15 O72,4.2249,{'mp-2715556': <CalcType.GGA_Structure_Optimization: 'GGA Structure Optimization'>}
mp-2715572,Na24 La6 Hf6 Si15 S3 O72,3.5991,{'mp-2715572': <CalcType.GGA_Structure_Optimization: 'GGA Structure Optimization'>}
mp-2715558,Na6 Hf6 Mg6 Si3 S15 O72,2.9264,{'mp-2715558': <CalcType.GGA_Structure_Optimization: 'GGA Structure Optimization'>}
mp-2715570,Na21 Y6 Ga6 Si3 P15 O72,3.7698,{'mp-2715570': <CalcType.GGA_Structure_Optimization: 'GGA Structure Optimization'>}
mp-2715569,Na6 Hf6 Zn6 Si3 S15 O72,3.0217,{'mp-2715569': <CalcType.GGA_Structure_Optimization: 'GGA Structure Optimization'>}
mp-2715561,Na24 Ti6 In6 Si15 S3 O72,2.7047,{'mp-2715561': <CalcType.GGA_Structure_Optimization: 'GGA Structure Optimization'>}
mp-2715578,Na24 Sc6 Si15 Sn6 S3 O72,2.9492000000000003,{'mp-2715578': <CalcType.GGA_Structure_Optimization: 'GGA Structure Optimization'>}
mp-2715577,Na6 La6 Ga6 Si3 S15 O72,1.5553,{'mp-2715577': <CalcType.GGA_Structure_Optimization: 'GGA Structure Optimization'>}
mp-2715573,Na24 Ca3 Ti9 Si12 P6 O72,2.179799999999999,{'mp-2715573': <CalcType.GGA_Structure_Optimization: 'GGA Structure Optimization'>}
mp-2715579,Na6 Nb9 In3 Si12 S6 O72,1.9734,{'mp-2715579': <CalcType.GGA_Structure_Optimization: 'GGA Structure Optimization'>}
mp-2715581,Na24 La6 Zr6 Si15 S3 O72,3.628,{'mp-2715581': <CalcType.GGA_Structure_Optimization: 'GGA Structure Optimization'>}
mp-2715585,Na6 Y6 Ga6 Si3 S15 O72,1.387,{'mp-2715585': <CalcType.GGA_Structure_Optimization: 'GGA Structure Optimization'>}
mp-2715584,Na6 Ta9 Al3 Si6 P12 O72,3.0599,{'mp-2715584': <CalcType.GGA_Structure_Optimization: 'GGA Structure Optimization'>}
mp-2715593,Na21 Mg6 Ti6 Si3 P15 O72,2.0159,{'mp-2715593': <CalcType.GGA_Structure_Optimization: 'GGA Structure Optimization'>}
mp-2715592,Na21 Zn6 Si3 Ge6 P15 O72,1.321199999999999,{'mp-2715592': <CalcType.GGA_Structure_Optimization: 'GGA Structure Optimization'>}
mp-2715601,Na24 Ga6 Si15 Ge6 S3 O72,2.9838999999999993,{'mp-2715601': <CalcType.GGA_Structure_Optimization: 'GGA Structure Optimization'>}
mp-2715598,Na21 Y6 Sc6 Si3 P15 O72,4.3819,{'mp-2715598': <CalcType.GGA_Structure_Optimization: 'GGA Structure Optimization'>}
mp-2715606,Na6 Ta9 Ga3 Si6 P12 O72,3.2121,{'mp-2715606': <CalcType.GGA_Structure_Optimization: 'GGA Structure Optimization'>}
mp-2715599,Na3 Ta9 Al3 Si3 P15 O72,3.0965,{'mp-2715599': <CalcType.GGA_Structure_Optimization: 'GGA Structure Optimization'>}
mp-2715596,Na24 Hf9 Mg3 Si12 P6 O72,4.062799999999999,{'mp-2715596': <CalcType.GGA_Structure_Optimization: 'GGA Structure Optimization'>}
mp-2715600,Na6 La3 Nb9 Si12 S6 O72,1.9583,{'mp-2715600': <CalcType.GGA_Structure_Optimization: 'GGA Structure Optimization'>}
mp-2715607,Na21 Ca6 Ti6 Si3 P15 O72,1.7605,{'mp-2715607': <CalcType.GGA_Structure_Optimization: 'GGA Structure Optimization'>}
mp-2715617,Na6 La3 Ta9 Si6 P12 O72,2.9492000000000003,{'mp-2715617': <CalcType.GGA_Structure_Optimization: 'GGA Structure Optimization'>}
mp-2715610,Na21 Sc6 Al6 Si3 P15 O72,4.5951,{'mp-2715610': <CalcType.GGA_Structure_Optimization: 'GGA Structure Optimization'>}
mp-2715608,Na3 Sc3 Nb9 Si3 P15 O72,2.2872,{'mp-2715608': <CalcType.GGA_Structure_Optimization: 'GGA Structure Optimization'>}
mp-2715609,Na6 Y3 Ta9 Si12 S6 O72,2.4583,{'mp-2715609': <CalcType.GGA_Structure_Optimization: 'GGA Structure Optimization'>}
mp-2715611,Na24 Ca3 Si15 Sn9 S3 O72,1.614599999999999,{'mp-2715611': <CalcType.GGA_Structure_Optimization: 'GGA Structure Optimization'>}
mp-2715624,Na3 Nb9 Al3 Si3 P15 O72,2.2127,{'mp-2715624': <CalcType.GGA_Structure_Optimization: 'GGA Structure Optimization'>}
mp-2715623,Na24 Mg3 Ti9 Si15 S3 O72,2.1194,{'mp-2715623': <CalcType.GGA_Structure_Optimization: 'GGA Structure Optimization'>}
mp-2715618,Na24 Mg6 Ta6 Si15 S3 O72,2.5772999999999993,{'mp-2715618': <CalcType.GGA_Structure_Optimization: 'GGA Structure Optimization'>}
mp-2715626,Na21 Y6 Al6 Si3 P15 O72,4.3683,{'mp-2715626': <CalcType.GGA_Structure_Optimization: 'GGA Structure Optimization'>}
mp-2715619,Na24 Al6 Si15 Ge6 S3 O72,3.1964,{'mp-2715619': <CalcType.GGA_Structure_Optimization: 'GGA Structure Optimization'>}
mp-2715620,Na24 La9 Nb3 Si12 P6 O72,2.4671,{'mp-2715620': <CalcType.GGA_Structure_Optimization: 'GGA Structure Optimization'>}
mp-2715621,Na21 Y6 In6 Si3 P15 O72,3.631999999999999,{'mp-2715621': <CalcType.GGA_Structure_Optimization: 'GGA Structure Optimization'>}
mp-2715637,Na24 La9 Nb3 Si15 S3 O72,2.5338000000000003,{'mp-2715637': <CalcType.GGA_Structure_Optimization: 'GGA Structure Optimization'>}
mp-2715634,Na24 Y9 Ta3 Si15 S3 O72,3.183899999999999,{'mp-2715634': <CalcType.GGA_Structure_Optimization: 'GGA Structure Optimization'>}
mp-2715632,Na21 La6 Al6 Si3 P15 O72,4.2125,{'mp-2715632': <CalcType.GGA_Structure_Optimization: 'GGA Structure Optimization'>}
mp-2715633,Na24 Sc9 Ta3 Si15 S3 O72,3.2907,{'mp-2715633': <CalcType.GGA_Structure_Optimization: 'GGA Structure Optimization'>}
mp-2715639,Na24 Hf9 Zn3 Si15 S3 O72,3.5263,{'mp-2715639': <CalcType.GGA_Structure_Optimization: 'GGA Structure Optimization'>}
mp-2715635,Na21 Ca6 Zr6 Si3 P15 O72,3.3927,{'mp-2715635': <CalcType.GGA_Structure_Optimization: 'GGA Structure Optimization'>}
mp-2715630,Na21 Ti6 Zn6 Si3 P15 O72,1.6666,{'mp-2715630': <CalcType.GGA_Structure_Optimization: 'GGA Structure Optimization'>}
mp-2715645,Na3 Nb6 Si3 Sn6 P15 O72,2.5869,{'mp-2715645': <CalcType.GGA_Structure_Optimization: 'GGA Structure Optimization'>}
mp-2715640,Na21 Ca6 Hf6 Si3 P15 O72,3.8648,{'mp-2715640': <CalcType.GGA_Structure_Optimization: 'GGA Structure Optimization'>}
mp-2715646,Na6 Sc3 Ta9 Si6 P12 O72,3.1125,{'mp-2715646': <CalcType.GGA_Structure_Optimization: 'GGA Structure Optimization'>}
mp-2715642,Na3 Hf6 Ta6 Si3 P15 O72,3.4104,{'mp-2715642': <CalcType.GGA_Structure_Optimization: 'GGA Structure Optimization'>}
mp-2715649,Na6 Ta9 Ga3 Si12 S6 O72,2.6096,{'mp-2715649': <CalcType.GGA_Structure_Optimization: 'GGA Structure Optimization'>}
mp-2715648,Na24 Ta3 In9 Si12 P6 O72,3.2511,{'mp-2715648': <CalcType.GGA_Structure_Optimization: 'GGA Structure Optimization'>}
mp-2715651,Na24 Hf6 Sc6 Si15 S3 O72,4.083299999999999,{'mp-2715651': <CalcType.GGA_Structure_Optimization: 'GGA Structure Optimization'>}
mp-2715652,Na24 Ta3 Al9 Si15 S3 O72,2.9061,{'mp-2715652': <CalcType.GGA_Structure_Optimization: 'GGA Structure Optimization'>}
mp-2715654,Na24 Zr6 Ga6 Si15 S3 O72,3.6518,{'mp-2715654': <CalcType.GGA_Structure_Optimization: 'GGA Structure Optimization'>}
mp-2715656,Na24 Zn3 Si15 Ge9 S3 O72,1.6362,{'mp-2715656': <CalcType.GGA_Structure_Optimization: 'GGA Structure Optimization'>}
mp-2715653,Na21 Ca6 Si3 Ge6 P15 O72,0.748499999999999,{'mp-2715653': <CalcType.GGA_Structure_Optimization: 'GGA Structure Optimization'>}
mp-2715660,Na21 Zn6 Si3 Sn6 P15 O72,1.9567,{'mp-2715660': <CalcType.GGA_Structure_Optimization: 'GGA Structure Optimization'>}
mp-2715663,Na24 Ta3 Ga9 Si15 S3 O72,3.1655,{'mp-2715663': <CalcType.GGA_Structure_Optimization: 'GGA Structure Optimization'>}
mp-2715668,Na6 Ta9 In3 Si12 S6 O72,0.9602,{'mp-2715668': <CalcType.GGA_Structure_Optimization: 'GGA Structure Optimization'>}
mp-2715665,Na24 Ti6 Al6 Si15 S3 O72,2.7262999999999993,{'mp-2715665': <CalcType.GGA_Structure_Optimization: 'GGA Structure Optimization'>}
mp-2715666,Na6 Sc3 Ta9 Si12 S6 O72,2.3967,{'mp-2715666': <CalcType.GGA_Structure_Optimization: 'GGA Structure Optimization'>}
mp-2715673,Na3 La3 Nb9 Si3 P15 O72,2.263,{'mp-2715673': <CalcType.GGA_Structure_Optimization: 'GGA Structure Optimization'>}
mp-2715680,Na24 Sc9 Nb3 Si12 P6 O72,2.3183,{'mp-2715680': <CalcType.GGA_Structure_Optimization: 'GGA Structure Optimization'>}
mp-2715676,Na24 Ta6 Zn6 Si15 S3 O72,2.3996999999999993,{'mp-2715676': <CalcType.GGA_Structure_Optimization: 'GGA Structure Optimization'>}
mp-2715678,Na24 Sc9 Ta3 Si12 P6 O72,3.1696,{'mp-2715678': <CalcType.GGA_Structure_Optimization: 'GGA Structure Optimization'>}
mp-2715677,Na3 Ta6 Ti6 Si3 P15 O72,2.558,{'mp-2715677': <CalcType.GGA_Structure_Optimization: 'GGA Structure Optimization'>}
mp-2715679,Na6 Ta9 In3 Si6 P12 O72,3.0301,{'mp-2715679': <CalcType.GGA_Structure_Optimization: 'GGA Structure Optimization'>}
mp-2715683,Na21 La6 Ga6 Si3 P15 O72,3.5852,{'mp-2715683': <CalcType.GGA_Structure_Optimization: 'GGA Structure Optimization'>}
mp-2715689,Na24 Y6 Si15 Sn6 S3 O72,2.7003,{'mp-2715689': <CalcType.GGA_Structure_Optimization: 'GGA Structure Optimization'>}
mp-2715692,Na21 Mg6 Si3 Ge6 P15 O72,1.732199999999999,{'mp-2715692': <CalcType.GGA_Structure_Optimization: 'GGA Structure Optimization'>}
mp-2715696,Na6 Ta9 Al3 Si12 S6 O72,2.4518,{'mp-2715696': <CalcType.GGA_Structure_Optimization: 'GGA Structure Optimization'>}
mp-2715697,Na6 Y3 Nb9 Si12 S6 O72,1.917,{'mp-2715697': <CalcType.GGA_Structure_Optimization: 'GGA Structure Optimization'>}
mp-2715685,Na24 Ca3 Zr9 Si12 P6 O72,3.7482,{'mp-2715685': <CalcType.GGA_Structure_Optimization: 'GGA Structure Optimization'>}
mp-2715687,Na21 Al6 In6 Si3 P15 O72,3.7613000000000003,{'mp-2715687': <CalcType.GGA_Structure_Optimization: 'GGA Structure Optimization'>}
mp-2715693,Na3 Y3 Ta9 Si3 P15 O72,3.1691,{'mp-2715693': <CalcType.GGA_Structure_Optimization: 'GGA Structure Optimization'>}
mp-2715701,Na6 La3 Nb9 Si6 P12 O72,2.1503,{'mp-2715701': <CalcType.GGA_Structure_Optimization: 'GGA Structure Optimization'>}
mp-2715714,Na6 Y3 Ta9 Si6 P12 O72,2.958799999999999,{'mp-2715714': <CalcType.GGA_Structure_Optimization: 'GGA Structure Optimization'>}
mp-2715699,Na24 Sc9 Nb3 Si15 S3 O72,2.3014,{'mp-2715699': <CalcType.GGA_Structure_Optimization: 'GGA Structure Optimization'>}
mp-2715698,Na6 Nb9 Ga3 Si12 S6 O72,1.9403000000000001,{'mp-2715698': <CalcType.GGA_Structure_Optimization: 'GGA Structure Optimization'>}
mp-2715704,Na3 Zr6 Ta6 Si3 P15 O72,3.3841,{'mp-2715704': <CalcType.GGA_Structure_Optimization: 'GGA Structure Optimization'>}
mp-2715700,Na24 Ti9 Zn3 Si12 P6 O72,2.0905,{'mp-2715700': <CalcType.GGA_Structure_Optimization: 'GGA Structure Optimization'>}
mp-2715713,Na24 Mg3 Si15 Ge9 S3 O72,1.5748000000000002,{'mp-2715713': <CalcType.GGA_Structure_Optimization: 'GGA Structure Optimization'>}
mp-2715725,Na6 La6 Sc6 Si3 S15 O72,2.1496,{'mp-2715725': <CalcType.GGA_Structure_Optimization: 'GGA Structure Optimization'>}
mp-2715716,Na24 Mg6 Nb6 Si15 S3 O72,1.7772000000000001,{'mp-2715716': <CalcType.GGA_Structure_Optimization: 'GGA Structure Optimization'>}
mp-2715730,Na24 Nb3 Ga9 Si15 S3 O72,2.216899999999999,{'mp-2715730': <CalcType.GGA_Structure_Optimization: 'GGA Structure Optimization'>}
mp-2715736,Na6 Sc3 Nb9 Si6 P12 O72,2.2569,{'mp-2715736': <CalcType.GGA_Structure_Optimization: 'GGA Structure Optimization'>}
mp-2715742,Na24 Zr6 Al6 Si15 S3 O72,3.9816000000000003,{'mp-2715742': <CalcType.GGA_Structure_Optimization: 'GGA Structure Optimization'>}
mp-2715719,Na24 Hf6 Al6 Si15 S3 O72,4.0054,{'mp-2715719': <CalcType.GGA_Structure_Optimization: 'GGA Structure Optimization'>}
mp-2715726,Na24 La6 Si15 Sn6 S3 O72,2.191,{'mp-2715726': <CalcType.GGA_Structure_Optimization: 'GGA Structure Optimization'>}
mp-2715741,Na21 Hf6 Zn6 Si3 P15 O72,3.856199999999999,{'mp-2715741': <CalcType.GGA_Structure_Optimization: 'GGA Structure Optimization'>}
mp-2715748,Na3 Hf6 Nb6 Si3 P15 O72,2.5741,{'mp-2715748': <CalcType.GGA_Structure_Optimization: 'GGA Structure Optimization'>}
mp-2715715,Na6 La6 In6 Si3 S15 O72,0.8971999999999991,{'mp-2715715': <CalcType.GGA_Structure_Optimization: 'GGA Structure Optimization'>}
mp-2715718,Na24 Ca3 Hf9 Si12 P6 O72,4.0714,{'mp-2715718': <CalcType.GGA_Structure_Optimization: 'GGA Structure Optimization'>}
mp-2715720,Na6 Nb9 Al3 Si6 P12 O72,2.2658,{'mp-2715720': <CalcType.GGA_Structure_Optimization: 'GGA Structure Optimization'>}
mp-2715731,Na21 Zr6 Zn6 Si3 P15 O72,3.5313,{'mp-2715731': <CalcType.GGA_Structure_Optimization: 'GGA Structure Optimization'>}
mp-2715735,Na6 Mg6 Zr6 Si3 S15 O72,2.2587,{'mp-2715735': <CalcType.GGA_Structure_Optimization: 'GGA Structure Optimization'>}
mp-2715739,Na21 Sc6 Ga6 Si3 P15 O72,4.0235,{'mp-2715739': <CalcType.GGA_Structure_Optimization: 'GGA Structure Optimization'>}
mp-2715743,Na6 Sc6 Ga6 Si3 S15 O72,1.7215,{'mp-2715743': <CalcType.GGA_Structure_Optimization: 'GGA Structure Optimization'>}
mp-2715729,Na3 Ta6 Si3 Ge6 P15 O72,3.1304,{'mp-2715729': <CalcType.GGA_Structure_Optimization: 'GGA Structure Optimization'>}
mp-2715745,Na24 Ca6 Ta6 Si15 S3 O72,2.681599999999999,{'mp-2715745': <CalcType.GGA_Structure_Optimization: 'GGA Structure Optimization'>}
mp-2715749,Na3 Ta9 In3 Si3 P15 O72,1.0145,{'mp-2715749': <CalcType.GGA_Structure_Optimization: 'GGA Structure Optimization'>}
mp-2715752,Na24 Y9 Nb3 Si12 P6 O72,2.4175,{'mp-2715752': <CalcType.GGA_Structure_Optimization: 'GGA Structure Optimization'>}
mp-2715733,Na6 Nb9 Ga3 Si6 P12 O72,2.3144,{'mp-2715733': <CalcType.GGA_Structure_Optimization: 'GGA Structure Optimization'>}
mp-2715760,Na24 Y6 Hf6 Si15 S3 O72,3.8485,{'mp-2715760': <CalcType.GGA_Structure_Optimization: 'GGA Structure Optimization'>}
mp-2715755,Na21 La6 Sc6 Si3 P15 O72,4.11,{'mp-2715755': <CalcType.GGA_Structure_Optimization: 'GGA Structure Optimization'>}
mp-2715753,Na24 Zn3 Si15 Sn9 S3 O72,1.557799999999999,{'mp-2715753': <CalcType.GGA_Structure_Optimization: 'GGA Structure Optimization'>}
mp-2715758,Na24 Sc6 Ti6 Si15 S3 O72,2.792799999999999,{'mp-2715758': <CalcType.GGA_Structure_Optimization: 'GGA Structure Optimization'>}
mp-2715761,Na21 La6 In6 Si3 P15 O72,3.4081,{'mp-2715761': <CalcType.GGA_Structure_Optimization: 'GGA Structure Optimization'>}
mp-2715774,Na24 Mg3 Si12 Sn9 P6 O72,2.5246,{'mp-2715774': <CalcType.GGA_Structure_Optimization: 'GGA Structure Optimization'>}
mp-2715771,Na24 Zr9 Zn3 Si15 S3 O72,3.3378,{'mp-2715771': <CalcType.GGA_Structure_Optimization: 'GGA Structure Optimization'>}
mp-2715767,Na3 Ti6 Nb6 Si3 P15 O72,2.5046,{'mp-2715767': <CalcType.GGA_Structure_Optimization: 'GGA Structure Optimization'>}
mp-2715768,Na21 In6 Ga6 Si3 P15 O72,3.4394,{'mp-2715768': <CalcType.GGA_Structure_Optimization: 'GGA Structure Optimization'>}
mp-2715770,Na3 Zr6 Nb6 Si3 P15 O72,2.5845000000000002,{'mp-2715770': <CalcType.GGA_Structure_Optimization: 'GGA Structure Optimization'>}
mp-2715811,Na3 Nb9 In3 Si3 P15 O72,2.356999999999999,{'mp-2715811': <CalcType.GGA_Structure_Optimization: 'GGA Structure Optimization'>}
mp-2715828,Na15 Sc6 Si3 Sn6 P15 O72,2.7169,{'mp-2715828': <CalcType.GGA_Structure_Optimization: 'GGA Structure Optimization'>}
mp-2715830,Na21 Ca6 In6 P15 S3 O72,1.9460000000000002,{'mp-2715830': <CalcType.GGA_Structure_Optimization: 'GGA Structure Optimization'>}
mp-2715793,Na21 Mg6 Si3 Sn6 P15 O72,2.1847,{'mp-2715793': <CalcType.GGA_Structure_Optimization: 'GGA Structure Optimization'>}
mp-2715807,Na3 Ta9 Ga3 Si3 P15 O72,3.1473,{'mp-2715807': <CalcType.GGA_Structure_Optimization: 'GGA Structure Optimization'>}
mp-2715778,Na6 Y3 Nb9 Si6 P12 O72,2.263899999999999,{'mp-2715778': <CalcType.GGA_Structure_Optimization: 'GGA Structure Optimization'>}
mp-2715779,Na24 In6 Si15 Ge6 S3 O72,2.6036,{'mp-2715779': <CalcType.GGA_Structure_Optimization: 'GGA Structure Optimization'>}
mp-2715824,Na15 La6 Si3 Ge6 P15 O72,1.0245,{'mp-2715824': <CalcType.GGA_Structure_Optimization: 'GGA Structure Optimization'>}
mp-2715825,Na9 Ta3 In9 P15 S3 O72,3.184,{'mp-2715825': <CalcType.GGA_Structure_Optimization: 'GGA Structure Optimization'>}
mp-2715800,Na24 Ca3 Si12 Sn9 P6 O72,2.2285,{'mp-2715800': <CalcType.GGA_Structure_Optimization: 'GGA Structure Optimization'>}
mp-2715802,Na3 Nb6 Si3 Ge6 P15 O72,2.6158,{'mp-2715802': <CalcType.GGA_Structure_Optimization: 'GGA Structure Optimization'>}
mp-2715806,Na6 La3 Ta9 Si12 S6 O72,2.396099999999999,{'mp-2715806': <CalcType.GGA_Structure_Optimization: 'GGA Structure Optimization'>}
mp-2715814,Na3 Sc3 Ta9 Si3 P15 O72,3.116799999999999,{'mp-2715814': <CalcType.GGA_Structure_Optimization: 'GGA Structure Optimization'>}