Material ID,Composition,Band Gap,Calc Types
mp-2715827,Na9 Al6 Ge6 P15 S3 O72,3.1514,{'mp-2715827': <CalcType.GGA_Structure_Optimization: 'GGA Structure Optimization'>}
mp-2715803,Na24 Nb3 Al9 Si15 S3 O72,2.173999999999999,{'mp-2715803': <CalcType.GGA_Structure_Optimization: 'GGA Structure Optimization'>}
mp-2715823,Na15 Sc9 Ta3 Si3 P15 O72,3.2933,{'mp-2715823': <CalcType.GGA_Structure_Optimization: 'GGA Structure Optimization'>}
mp-2715833,Na15 Hf9 Zn3 Si3 P15 O72,4.2732,{'mp-2715833': <CalcType.GGA_Structure_Optimization: 'GGA Structure Optimization'>}
mp-2715835,Na9 Nb3 Al9 P15 S3 O72,2.3292,{'mp-2715835': <CalcType.GGA_Structure_Optimization: 'GGA Structure Optimization'>}
mp-2715843,Na9 Al6 Sn6 P15 S3 O72,3.312299999999999,{'mp-2715843': <CalcType.GGA_Structure_Optimization: 'GGA Structure Optimization'>}
mp-2715841,Na21 Mg9 Sn3 P15 S3 O72,2.8881,{'mp-2715841': <CalcType.GGA_Structure_Optimization: 'GGA Structure Optimization'>}
mp-2715834,Na9 Ga6 Ge6 P15 S3 O72,2.8352,{'mp-2715834': <CalcType.GGA_Structure_Optimization: 'GGA Structure Optimization'>}
mp-2715845,Na21 Al6 Zn6 P15 S3 O72,4.297,{'mp-2715845': <CalcType.GGA_Structure_Optimization: 'GGA Structure Optimization'>}
mp-2715849,Na15 Ca3 Ti9 Si3 P15 O72,1.9465,{'mp-2715849': <CalcType.GGA_Structure_Optimization: 'GGA Structure Optimization'>}
mp-2715852,Na21 Mg9 Zr3 P15 S3 O72,3.6374999999999993,{'mp-2715852': <CalcType.GGA_Structure_Optimization: 'GGA Structure Optimization'>}
mp-2715859,Na9 Sc9 Ta3 P15 S3 O72,3.1532,{'mp-2715859': <CalcType.GGA_Structure_Optimization: 'GGA Structure Optimization'>}
mp-2715858,Na15 Mg6 Nb6 Si3 P15 O72,1.722799999999999,{'mp-2715858': <CalcType.GGA_Structure_Optimization: 'GGA Structure Optimization'>}
mp-2715881,Na15 Mg6 Ta6 Si3 P15 O72,2.5156,{'mp-2715881': <CalcType.GGA_Structure_Optimization: 'GGA Structure Optimization'>}
mp-2715883,Na9 Ti6 In6 P15 S3 O72,2.4274,{'mp-2715883': <CalcType.GGA_Structure_Optimization: 'GGA Structure Optimization'>}
mp-2715866,Na9 Mg3 Ti9 P15 S3 O72,2.1078,{'mp-2715866': <CalcType.GGA_Structure_Optimization: 'GGA Structure Optimization'>}
mp-2715870,Na15 Nb6 Zn6 Si3 P15 O72,1.8101999999999991,{'mp-2715870': <CalcType.GGA_Structure_Optimization: 'GGA Structure Optimization'>}
mp-2715880,Na21 Ca9 Ge3 P15 S3 O72,1.8682999999999992,{'mp-2715880': <CalcType.GGA_Structure_Optimization: 'GGA Structure Optimization'>}
mp-2715856,Na9 Mg6 Ta6 P15 S3 O72,2.9136,{'mp-2715856': <CalcType.GGA_Structure_Optimization: 'GGA Structure Optimization'>}
mp-2715863,Na21 Zn6 In6 P15 S3 O72,3.4372,{'mp-2715863': <CalcType.GGA_Structure_Optimization: 'GGA Structure Optimization'>}
mp-2715868,Na9 Y6 Ge6 P15 S3 O72,2.3883,{'mp-2715868': <CalcType.GGA_Structure_Optimization: 'GGA Structure Optimization'>}
mp-2715871,Na9 Ca6 Ta6 P15 S3 O72,2.69,{'mp-2715871': <CalcType.GGA_Structure_Optimization: 'GGA Structure Optimization'>}
mp-2715872,Na9 Ca3 Ge9 P15 S3 O72,1.545599999999999,{'mp-2715872': <CalcType.GGA_Structure_Optimization: 'GGA Structure Optimization'>}
mp-2715877,Na15 Ga6 Si3 Ge6 P15 O72,2.614299999999999,{'mp-2715877': <CalcType.GGA_Structure_Optimization: 'GGA Structure Optimization'>}
mp-2715860,Na21 Hf3 Zn9 P15 S3 O72,3.92,{'mp-2715860': <CalcType.GGA_Structure_Optimization: 'GGA Structure Optimization'>}
mp-2715867,Na9 Hf6 Al6 P15 S3 O72,4.7516,{'mp-2715867': <CalcType.GGA_Structure_Optimization: 'GGA Structure Optimization'>}
mp-2715885,Na9 Ta6 Zn6 P15 S3 O72,2.7835,{'mp-2715885': <CalcType.GGA_Structure_Optimization: 'GGA Structure Optimization'>}
mp-2715886,Na9 Sc6 Ge6 P15 S3 O72,2.6369,{'mp-2715886': <CalcType.GGA_Structure_Optimization: 'GGA Structure Optimization'>}
mp-2715891,Na9 Mg3 Sn9 P15 S3 O72,2.3552,{'mp-2715891': <CalcType.GGA_Structure_Optimization: 'GGA Structure Optimization'>}
mp-2715892,Na15 Zn3 Si3 Sn9 P15 O72,2.425,{'mp-2715892': <CalcType.GGA_Structure_Optimization: 'GGA Structure Optimization'>}
mp-2715900,Na21 Ca6 Ga6 P15 S3 O72,3.6075,{'mp-2715900': <CalcType.GGA_Structure_Optimization: 'GGA Structure Optimization'>}
mp-2715897,Na15 Ca3 Zr9 Si3 P15 O72,3.6222000000000003,{'mp-2715897': <CalcType.GGA_Structure_Optimization: 'GGA Structure Optimization'>}
mp-2715890,Na9 Zr6 In6 P15 S3 O72,3.4762,{'mp-2715890': <CalcType.GGA_Structure_Optimization: 'GGA Structure Optimization'>}
mp-2715887,Na15 Hf9 Mg3 Si3 P15 O72,4.2736,{'mp-2715887': <CalcType.GGA_Structure_Optimization: 'GGA Structure Optimization'>}
mp-2715905,Na15 Ta3 Al9 Si3 P15 O72,3.1995,{'mp-2715905': <CalcType.GGA_Structure_Optimization: 'GGA Structure Optimization'>}
mp-2715909,Na21 Mg6 Al6 P15 S3 O72,4.7203,{'mp-2715909': <CalcType.GGA_Structure_Optimization: 'GGA Structure Optimization'>}
mp-2715902,Na9 Ta3 Ga9 P15 S3 O72,3.1817,{'mp-2715902': <CalcType.GGA_Structure_Optimization: 'GGA Structure Optimization'>}
mp-2715903,Na9 Zn3 Ge9 P15 S3 O72,1.8842,{'mp-2715903': <CalcType.GGA_Structure_Optimization: 'GGA Structure Optimization'>}
mp-2715904,Na15 Hf6 Al6 Si3 P15 O72,4.5474,{'mp-2715904': <CalcType.GGA_Structure_Optimization: 'GGA Structure Optimization'>}
mp-2715907,Na15 Hf6 In6 Si3 P15 O72,3.605699999999999,{'mp-2715907': <CalcType.GGA_Structure_Optimization: 'GGA Structure Optimization'>}
mp-2715908,Na9 Ca3 Zr9 P15 S3 O72,3.4052,{'mp-2715908': <CalcType.GGA_Structure_Optimization: 'GGA Structure Optimization'>}
mp-2715910,Na21 La6 Zn6 P15 S3 O72,3.8939999999999992,{'mp-2715910': <CalcType.GGA_Structure_Optimization: 'GGA Structure Optimization'>}
mp-2715917,Na21 Ca6 Y6 P15 S3 O72,4.2774,{'mp-2715917': <CalcType.GGA_Structure_Optimization: 'GGA Structure Optimization'>}
mp-2715913,Na9 Zr9 Zn3 P15 S3 O72,3.6401,{'mp-2715913': <CalcType.GGA_Structure_Optimization: 'GGA Structure Optimization'>}
mp-2715911,Na15 Y6 Zr6 Si3 P15 O72,3.792399999999999,{'mp-2715911': <CalcType.GGA_Structure_Optimization: 'GGA Structure Optimization'>}
mp-2715915,Na9 Ti9 Zn3 P15 S3 O72,2.023799999999999,{'mp-2715915': <CalcType.GGA_Structure_Optimization: 'GGA Structure Optimization'>}
mp-2715916,Na15 Y6 Si3 Sn6 P15 O72,2.21,{'mp-2715916': <CalcType.GGA_Structure_Optimization: 'GGA Structure Optimization'>}
mp-2715920,Na15 Ca6 Nb6 Si3 P15 O72,1.7545000000000002,{'mp-2715920': <CalcType.GGA_Structure_Optimization: 'GGA Structure Optimization'>}
mp-2715921,Na9 Ta3 Al9 P15 S3 O72,3.1602,{'mp-2715921': <CalcType.GGA_Structure_Optimization: 'GGA Structure Optimization'>}
mp-2715923,Na15 La9 Nb3 Si3 P15 O72,2.2938,{'mp-2715923': <CalcType.GGA_Structure_Optimization: 'GGA Structure Optimization'>}
mp-2715934,Na9 Ca3 Sn9 P15 S3 O72,1.7912,{'mp-2715934': <CalcType.GGA_Structure_Optimization: 'GGA Structure Optimization'>}
mp-2715936,Na15 In6 Si3 Ge6 P15 O72,2.087799999999999,{'mp-2715936': <CalcType.GGA_Structure_Optimization: 'GGA Structure Optimization'>}
mp-2715939,Na9 Y9 Nb3 P15 S3 O72,2.2801,{'mp-2715939': <CalcType.GGA_Structure_Optimization: 'GGA Structure Optimization'>}
mp-2715940,Na9 Y9 Ta3 P15 S3 O72,3.0491,{'mp-2715940': <CalcType.GGA_Structure_Optimization: 'GGA Structure Optimization'>}
mp-2715929,Na15 Zr6 Ga6 Si3 P15 O72,3.641899999999999,{'mp-2715929': <CalcType.GGA_Structure_Optimization: 'GGA Structure Optimization'>}
mp-2715950,Na9 Ca3 Hf9 P15 S3 O72,4.2491,{'mp-2715950': <CalcType.GGA_Structure_Optimization: 'GGA Structure Optimization'>}
mp-2715952,Na21 Ca6 Sc6 P15 S3 O72,4.2597000000000005,{'mp-2715952': <CalcType.GGA_Structure_Optimization: 'GGA Structure Optimization'>}
mp-2715946,Na15 Mg3 Si3 Sn9 P15 O72,2.4005,{'mp-2715946': <CalcType.GGA_Structure_Optimization: 'GGA Structure Optimization'>}
mp-2715962,Na21 Mg6 In6 P15 S3 O72,1.8484,{'mp-2715962': <CalcType.GGA_Structure_Optimization: 'GGA Structure Optimization'>}
mp-2715959,Na9 Ti6 Al6 P15 S3 O72,2.443399999999999,{'mp-2715959': <CalcType.GGA_Structure_Optimization: 'GGA Structure Optimization'>}
mp-2715958,Na9 La6 Ge6 P15 S3 O72,1.824799999999999,{'mp-2715958': <CalcType.GGA_Structure_Optimization: 'GGA Structure Optimization'>}
mp-2715967,Na9 Nb3 In9 P15 S3 O72,2.3787000000000003,{'mp-2715967': <CalcType.GGA_Structure_Optimization: 'GGA Structure Optimization'>}
mp-2715954,Na15 Zr9 Zn3 Si3 P15 O72,3.6747,{'mp-2715954': <CalcType.GGA_Structure_Optimization: 'GGA Structure Optimization'>}
mp-2715974,Na15 Y6 Si3 Ge6 P15 O72,1.7875,{'mp-2715974': <CalcType.GGA_Structure_Optimization: 'GGA Structure Optimization'>}
mp-2715975,Na21 Ti3 Zn9 P15 S3 O72,2.250499999999999,{'mp-2715975': <CalcType.GGA_Structure_Optimization: 'GGA Structure Optimization'>}
mp-2715969,Na15 Y6 Ti6 Si3 P15 O72,2.1726,{'mp-2715969': <CalcType.GGA_Structure_Optimization: 'GGA Structure Optimization'>}
mp-2715971,Na15 Ca6 Ta6 Si3 P15 O72,2.4264,{'mp-2715971': <CalcType.GGA_Structure_Optimization: 'GGA Structure Optimization'>}
mp-2715981,Na9 Ca6 Nb6 P15 S3 O72,1.9803000000000002,{'mp-2715981': <CalcType.GGA_Structure_Optimization: 'GGA Structure Optimization'>}
mp-2716003,Na15 In6 Si3 Sn6 P15 O72,2.611799999999999,{'mp-2716003': <CalcType.GGA_Structure_Optimization: 'GGA Structure Optimization'>}
mp-2716005,Na9 Y6 Hf6 P15 S3 O72,4.8835,{'mp-2716005': <CalcType.GGA_Structure_Optimization: 'GGA Structure Optimization'>}
mp-2715977,Na21 Zr3 Zn9 P15 S3 O72,3.9103000000000003,{'mp-2715977': <CalcType.GGA_Structure_Optimization: 'GGA Structure Optimization'>}
mp-2715982,Na9 In6 Sn6 P15 S3 O72,2.6829,{'mp-2715982': <CalcType.GGA_Structure_Optimization: 'GGA Structure Optimization'>}
mp-2715999,Na21 Y6 Mg6 P15 S3 O72,4.2691,{'mp-2715999': <CalcType.GGA_Structure_Optimization: 'GGA Structure Optimization'>}
mp-2716010,Na21 Zn9 Sn3 P15 S3 O72,2.7558,{'mp-2716010': <CalcType.GGA_Structure_Optimization: 'GGA Structure Optimization'>}
mp-2715990,Na9 Sc6 Sn6 P15 S3 O72,2.924499999999999,{'mp-2715990': <CalcType.GGA_Structure_Optimization: 'GGA Structure Optimization'>}
mp-2715980,Na9 In6 Ge6 P15 S3 O72,0.5778000000000001,{'mp-2715980': <CalcType.GGA_Structure_Optimization: 'GGA Structure Optimization'>}
mp-2716000,Na9 Ca3 Ti9 P15 S3 O72,1.8819,{'mp-2716000': <CalcType.GGA_Structure_Optimization: 'GGA Structure Optimization'>}
mp-2715979,Na15 Zr6 In6 Si3 P15 O72,3.608799999999999,{'mp-2715979': <CalcType.GGA_Structure_Optimization: 'GGA Structure Optimization'>}
mp-2715989,Na9 Zr6 Al6 P15 S3 O72,3.9535,{'mp-2715989': <CalcType.GGA_Structure_Optimization: 'GGA Structure Optimization'>}
mp-2715993,Na9 Hf6 Sc6 P15 S3 O72,4.5689,{'mp-2715993': <CalcType.GGA_Structure_Optimization: 'GGA Structure Optimization'>}
mp-2715997,Na15 Zn3 Si3 Ge9 P15 O72,2.0946,{'mp-2715997': <CalcType.GGA_Structure_Optimization: 'GGA Structure Optimization'>}
mp-2715998,Na21 Mg6 Sc6 P15 S3 O72,4.4151,{'mp-2715998': <CalcType.GGA_Structure_Optimization: 'GGA Structure Optimization'>}
mp-2715991,Na21 Y6 Zn6 P15 S3 O72,3.9926999999999992,{'mp-2715991': <CalcType.GGA_Structure_Optimization: 'GGA Structure Optimization'>}
mp-2715994,Na15 Sc9 Nb3 Si3 P15 O72,2.3081,{'mp-2715994': <CalcType.GGA_Structure_Optimization: 'GGA Structure Optimization'>}
mp-2716006,Na9 La6 Ti6 P15 S3 O72,2.3703,{'mp-2716006': <CalcType.GGA_Structure_Optimization: 'GGA Structure Optimization'>}
mp-2716007,Na15 Ga6 Si3 Sn6 P15 O72,2.9552,{'mp-2716007': <CalcType.GGA_Structure_Optimization: 'GGA Structure Optimization'>}
mp-2716009,Na9 Hf9 Mg3 P15 S3 O72,4.5133,{'mp-2716009': <CalcType.GGA_Structure_Optimization: 'GGA Structure Optimization'>}
mp-2716012,Na9 La9 Nb3 P15 S3 O72,2.2912,{'mp-2716012': <CalcType.GGA_Structure_Optimization: 'GGA Structure Optimization'>}
mp-2716024,Na21 Ca9 Zr3 P15 S3 O72,3.7251000000000003,{'mp-2716024': <CalcType.GGA_Structure_Optimization: 'GGA Structure Optimization'>}
mp-2716021,Na9 Hf6 Ga6 P15 S3 O72,4.326,{'mp-2716021': <CalcType.GGA_Structure_Optimization: 'GGA Structure Optimization'>}
mp-2716018,Na15 Ti6 Ga6 Si3 P15 O72,2.2998,{'mp-2716018': <CalcType.GGA_Structure_Optimization: 'GGA Structure Optimization'>}
mp-2716030,Na9 La6 Hf6 P15 S3 O72,4.6960999999999995,{'mp-2716030': <CalcType.GGA_Structure_Optimization: 'GGA Structure Optimization'>}
mp-2716027,Na9 Mg3 Ge9 P15 S3 O72,2.0694,{'mp-2716027': <CalcType.GGA_Structure_Optimization: 'GGA Structure Optimization'>}
mp-2716031,Na9 Zr6 Ga6 P15 S3 O72,3.984,{'mp-2716031': <CalcType.GGA_Structure_Optimization: 'GGA Structure Optimization'>}
mp-2716026,Na15 Ca3 Si3 Ge9 P15 O72,1.8726999999999991,{'mp-2716026': <CalcType.GGA_Structure_Optimization: 'GGA Structure Optimization'>}
mp-2716032,Na21 Ca6 La6 P15 S3 O72,4.2258,{'mp-2716032': <CalcType.GGA_Structure_Optimization: 'GGA Structure Optimization'>}
mp-2716041,Na9 Zn3 Sn9 P15 S3 O72,2.2982,{'mp-2716041': <CalcType.GGA_Structure_Optimization: 'GGA Structure Optimization'>}
mp-2716044,Na15 Ti6 Al6 Si3 P15 O72,2.4021,{'mp-2716044': <CalcType.GGA_Structure_Optimization: 'GGA Structure Optimization'>}
mp-2716053,Na15 Hf6 Ga6 Si3 P15 O72,3.8214,{'mp-2716053': <CalcType.GGA_Structure_Optimization: 'GGA Structure Optimization'>}
mp-2716063,Na9 Y6 Zr6 P15 S3 O72,4.1247,{'mp-2716063': <CalcType.GGA_Structure_Optimization: 'GGA Structure Optimization'>}
mp-2716033,Na15 Ti6 In6 Si3 P15 O72,2.2293,{'mp-2716033': <CalcType.GGA_Structure_Optimization: 'GGA Structure Optimization'>}
mp-2716055,Na21 La6 Mg6 P15 S3 O72,4.1104,{'mp-2716055': <CalcType.GGA_Structure_Optimization: 'GGA Structure Optimization'>}
mp-2716061,Na9 Nb3 Ga9 P15 S3 O72,2.3334,{'mp-2716061': <CalcType.GGA_Structure_Optimization: 'GGA Structure Optimization'>}
mp-2716043,Na21 Zn6 Ga6 P15 S3 O72,3.627799999999999,{'mp-2716043': <CalcType.GGA_Structure_Optimization: 'GGA Structure Optimization'>}
mp-2716050,Na9 La6 Zr6 P15 S3 O72,3.980299999999999,{'mp-2716050': <CalcType.GGA_Structure_Optimization: 'GGA Structure Optimization'>}
mp-2716034,Na15 Al6 Si3 Sn6 P15 O72,3.211699999999999,{'mp-2716034': <CalcType.GGA_Structure_Optimization: 'GGA Structure Optimization'>}
mp-2716040,Na15 Zr6 Sc6 Si3 P15 O72,3.9705,{'mp-2716040': <CalcType.GGA_Structure_Optimization: 'GGA Structure Optimization'>}
mp-2716036,Na21 Mg6 Ga6 P15 S3 O72,3.999099999999999,{'mp-2716036': <CalcType.GGA_Structure_Optimization: 'GGA Structure Optimization'>}
mp-2716051,Na9 Sc6 Ti6 P15 S3 O72,2.3798999999999992,{'mp-2716051': <CalcType.GGA_Structure_Optimization: 'GGA Structure Optimization'>}
mp-2716056,Na21 Zn9 Ge3 P15 S3 O72,2.2888,{'mp-2716056': <CalcType.GGA_Structure_Optimization: 'GGA Structure Optimization'>}
mp-2716057,Na15 Mg3 Zr9 Si3 P15 O72,3.595499999999999,{'mp-2716057': <CalcType.GGA_Structure_Optimization: 'GGA Structure Optimization'>}
mp-2716082,Na21 Ca9 Ti3 P15 S3 O72,2.162899999999999,{'mp-2716082': <CalcType.GGA_Structure_Optimization: 'GGA Structure Optimization'>}
mp-2716085,Na9 Ga6 Sn6 P15 S3 O72,3.072599999999999,{'mp-2716085': <CalcType.GGA_Structure_Optimization: 'GGA Structure Optimization'>}
mp-2716081,Na15 La6 Si3 Sn6 P15 O72,1.8409,{'mp-2716081': <CalcType.GGA_Structure_Optimization: 'GGA Structure Optimization'>}
mp-2716086,Na15 Ta3 In9 Si3 P15 O72,0.7953999999999991,{'mp-2716086': <CalcType.GGA_Structure_Optimization: 'GGA Structure Optimization'>}
mp-2716088,Na9 La9 Ta3 P15 S3 O72,3.2116,{'mp-2716088': <CalcType.GGA_Structure_Optimization: 'GGA Structure Optimization'>}
mp-2716069,Na9 Mg3 Zr9 P15 S3 O72,3.7498,{'mp-2716069': <CalcType.GGA_Structure_Optimization: 'GGA Structure Optimization'>}
mp-2716073,Na9 Y6 Ti6 P15 S3 O72,2.4194,{'mp-2716073': <CalcType.GGA_Structure_Optimization: 'GGA Structure Optimization'>}
mp-2716079,Na15 La6 Ti6 Si3 P15 O72,1.9645000000000001,{'mp-2716079': <CalcType.GGA_Structure_Optimization: 'GGA Structure Optimization'>}
mp-2716066,Na9 Ti6 Ga6 P15 S3 O72,2.4078,{'mp-2716066': <CalcType.GGA_Structure_Optimization: 'GGA Structure Optimization'>}
mp-2716070,Na15 Ta6 Zn6 Si3 P15 O72,2.5731,{'mp-2716070': <CalcType.GGA_Structure_Optimization: 'GGA Structure Optimization'>}
mp-2716093,Na9 Y6 Sn6 P15 S3 O72,2.670499999999999,{'mp-2716093': <CalcType.GGA_Structure_Optimization: 'GGA Structure Optimization'>}
mp-2716077,Na15 Ta3 Ga9 Si3 P15 O72,3.3363,{'mp-2716077': <CalcType.GGA_Structure_Optimization: 'GGA Structure Optimization'>}
mp-2716071,Na9 Sc9 Nb3 P15 S3 O72,2.3284000000000002,{'mp-2716071': <CalcType.GGA_Structure_Optimization: 'GGA Structure Optimization'>}
mp-2716080,Na21 Ca9 Sn3 P15 S3 O72,2.4332000000000003,{'mp-2716080': <CalcType.GGA_Structure_Optimization: 'GGA Structure Optimization'>}
mp-2716078,Na9 Hf9 Zn3 P15 S3 O72,4.391599999999999,{'mp-2716078': <CalcType.GGA_Structure_Optimization: 'GGA Structure Optimization'>}
mp-2716096,Na15 Ca3 Si3 Sn9 P15 O72,2.102699999999999,{'mp-2716096': <CalcType.GGA_Structure_Optimization: 'GGA Structure Optimization'>}
mp-2716075,Na21 Ca9 Hf3 P15 S3 O72,4.2465,{'mp-2716075': <CalcType.GGA_Structure_Optimization: 'GGA Structure Optimization'>}
mp-2716100,Na21 Mg9 Ge3 P15 S3 O72,2.475,{'mp-2716100': <CalcType.GGA_Structure_Optimization: 'GGA Structure Optimization'>}
mp-2716106,Na9 Nb6 Zn6 P15 S3 O72,2.0004,{'mp-2716106': <CalcType.GGA_Structure_Optimization: 'GGA Structure Optimization'>}
mp-2716098,Na15 Ti9 Zn3 Si3 P15 O72,1.951,{'mp-2716098': <CalcType.GGA_Structure_Optimization: 'GGA Structure Optimization'>}
mp-2716116,Na9 Hf6 In6 P15 S3 O72,4.038399999999999,{'mp-2716116': <CalcType.GGA_Structure_Optimization: 'GGA Structure Optimization'>}
mp-2716107,Na9 Mg6 Nb6 P15 S3 O72,2.1343,{'mp-2716107': <CalcType.GGA_Structure_Optimization: 'GGA Structure Optimization'>}
mp-2716113,Na9 La6 Sn6 P15 S3 O72,2.3807,{'mp-2716113': <CalcType.GGA_Structure_Optimization: 'GGA Structure Optimization'>}
mp-2716115,Na9 Zr6 Sc6 P15 S3 O72,4.110200000000001,{'mp-2716115': <CalcType.GGA_Structure_Optimization: 'GGA Structure Optimization'>}
mp-2716117,Na15 Ca3 Hf9 Si3 P15 O72,4.283200000000001,{'mp-2716117': <CalcType.GGA_Structure_Optimization: 'GGA Structure Optimization'>}
mp-2716105,Na15 Al6 Si3 Ge6 P15 O72,2.8755,{'mp-2716105': <CalcType.GGA_Structure_Optimization: 'GGA Structure Optimization'>}
mp-2716110,Na21 Sc6 Zn6 P15 S3 O72,4.325699999999999,{'mp-2716110': <CalcType.GGA_Structure_Optimization: 'GGA Structure Optimization'>}
mp-2716131,Na18 La6 Y6 Si9 S9 O72,3.520099999999999,{'mp-2716131': <CalcType.GGA_Structure_Optimization: 'GGA Structure Optimization'>}
mp-2716120,Na18 Zn6 Si9 Sn6 S9 O72,0.5407000000000001,{'mp-2716120': <CalcType.GGA_Structure_Optimization: 'GGA Structure Optimization'>}
mp-2716128,Na3 Ti6 Ge6 P15 S3 O72,2.1424,{'mp-2716128': <CalcType.GGA_Structure_Optimization: 'GGA Structure Optimization'>}
mp-2716123,Na3 Nb6 Ga6 P15 S3 O72,2.4629,{'mp-2716123': <CalcType.GGA_Structure_Optimization: 'GGA Structure Optimization'>}
mp-2716129,Na18 Al6 In6 Si9 S9 O72,2.2778,{'mp-2716129': <CalcType.GGA_Structure_Optimization: 'GGA Structure Optimization'>}
mp-2716134,Na24 Ta3 In9 Si15 S3 O72,2.9678999999999993,{'mp-2716134': <CalcType.GGA_Structure_Optimization: 'GGA Structure Optimization'>}
mp-2716161,Na24 Y6 Si15 Ge6 S3 O72,2.5296000000000003,{'mp-2716161': <CalcType.GGA_Structure_Optimization: 'GGA Structure Optimization'>}
mp-2716147,Na24 Ta3 Al9 Si12 P6 O72,3.177899999999999,{'mp-2716147': <CalcType.GGA_Structure_Optimization: 'GGA Structure Optimization'>}
mp-2716137,Na18 Sc6 Al6 Si9 S9 O72,3.1518,{'mp-2716137': <CalcType.GGA_Structure_Optimization: 'GGA Structure Optimization'>}
mp-2716156,Na24 Nb3 Al9 Si12 P6 O72,2.1466,{'mp-2716156': <CalcType.GGA_Structure_Optimization: 'GGA Structure Optimization'>}
mp-2716162,Na3 Ta6 Al6 P15 S3 O72,3.0669,{'mp-2716162': <CalcType.GGA_Structure_Optimization: 'GGA Structure Optimization'>}
mp-2716140,Na18 Mg6 Ti6 Si9 S9 O72,0.3361,{'mp-2716140': <CalcType.GGA_Structure_Optimization: 'GGA Structure Optimization'>}
mp-2716155,Na24 Zn3 Si12 Sn9 P6 O72,2.1359999999999992,{'mp-2716155': <CalcType.GGA_Structure_Optimization: 'GGA Structure Optimization'>}
mp-2716159,Na18 La6 In6 Si9 S9 O72,2.3836999999999993,{'mp-2716159': <CalcType.GGA_Structure_Optimization: 'GGA Structure Optimization'>}
mp-2716148,Na24 Hf6 Ga6 Si15 S3 O72,3.656099999999999,{'mp-2716148': <CalcType.GGA_Structure_Optimization: 'GGA Structure Optimization'>}