Material ID,Composition,Band Gap,Calc Types
mp-764273,Na4 Li2 Mn2 P2 C2 O14,3.8619,"{'mp-799294': <CalcType.GGA_U_Static: 'GGA+U Static'>, 'mp-800069': <CalcType.GGA_U_NSCF_Line: 'GGA+U NSCF Line'>, 'mp-764273': <CalcType.GGA_U_Structure_Optimization: 'GGA+U Structure Optimization'>, 'mp-827597': <CalcType.GGA_Static: 'GGA Static'>, 'mp-829651': <CalcType.GGA_NSCF_Line: 'GGA NSCF Line'>, 'mp-1348155': <CalcType.GGA_U_Static: 'GGA+U Static'>, 'mp-1574644': <CalcType.GGA_U_Structure_Optimization: 'GGA+U Structure Optimization'>, 'mp-1575281': <CalcType.GGA_U_Structure_Optimization: 'GGA+U Structure Optimization'>, 'mp-1574474': <CalcType.GGA_U_Structure_Optimization: 'GGA+U Structure Optimization'>, 'mp-1651205': <CalcType.GGA_U_Static: 'GGA+U Static'>, 'mp-1652096': <CalcType.GGA_U_Static: 'GGA+U Static'>, 'mp-1653889': <CalcType.GGA_U_Static: 'GGA+U Static'>, 'mp-1653899': <CalcType.GGA_U_Static: 'GGA+U Static'>, 'mp-1653207': <CalcType.GGA_U_Structure_Optimization: 'GGA+U Structure Optimization'>, 'mp-1811726': <CalcType.GGA_U_Static: 'GGA+U Static'>, 'mp-830164': <CalcType.GGA_NSCF_Line: 'GGA NSCF Line'>, 'mp-801020': <CalcType.GGA_U_NSCF_Line: 'GGA+U NSCF Line'>}"
mp-759934,K8 Li4 Mn4 P4 C4 O28,3.5002,"{'mp-763834': <CalcType.GGA_U_Structure_Optimization: 'GGA+U Structure Optimization'>, 'mp-800217': <CalcType.GGA_U_Static: 'GGA+U Static'>, 'mp-804789': <CalcType.GGA_U_NSCF_Line: 'GGA+U NSCF Line'>, 'mp-759934': <CalcType.GGA_Structure_Optimization: 'GGA Structure Optimization'>, 'mp-827475': <CalcType.GGA_NSCF_Line: 'GGA NSCF Line'>, 'mp-826515': <CalcType.GGA_Static: 'GGA Static'>, 'mp-1369601': <CalcType.GGA_U_Static: 'GGA+U Static'>, 'mp-1574936': <CalcType.GGA_U_Structure_Optimization: 'GGA+U Structure Optimization'>, 'mp-1575109': <CalcType.GGA_U_Structure_Optimization: 'GGA+U Structure Optimization'>, 'mp-1574530': <CalcType.GGA_U_Static: 'GGA+U Static'>, 'mp-1653300': <CalcType.GGA_U_Static: 'GGA+U Static'>, 'mp-1652250': <CalcType.GGA_U_Structure_Optimization: 'GGA+U Structure Optimization'>, 'mp-1650128': <CalcType.GGA_U_Structure_Optimization: 'GGA+U Structure Optimization'>, 'mp-1651213': <CalcType.GGA_U_Structure_Optimization: 'GGA+U Structure Optimization'>, 'mp-1653521': <CalcType.GGA_U_Structure_Optimization: 'GGA+U Structure Optimization'>, 'mp-1650356': <CalcType.GGA_U_Static: 'GGA+U Static'>, 'mp-1651799': <CalcType.GGA_U_Static: 'GGA+U Static'>, 'mp-1654276': <CalcType.GGA_U_Structure_Optimization: 'GGA+U Structure Optimization'>, 'mp-1660475': <CalcType.GGA_U_Static: 'GGA+U Static'>, 'mp-1660985': <CalcType.GGA_U_Static: 'GGA+U Static'>, 'mp-1666548': <CalcType.GGA_U_Structure_Optimization: 'GGA+U Structure Optimization'>, 'mp-1667498': <CalcType.GGA_U_Static: 'GGA+U Static'>, 'mp-1885448': <CalcType.GGA_U_Static: 'GGA+U Static'>, 'mp-806318': <CalcType.GGA_U_NSCF_Line: 'GGA+U NSCF Line'>, 'mp-829438': <CalcType.GGA_NSCF_Line: 'GGA NSCF Line'>}"
mp-696909,Ni2 H32 C4 S6 N12 O14,2.0367,"{'mp-818339': <CalcType.GGA_U_Static: 'GGA+U Static'>, 'mp-743836': <CalcType.GGA_U_Structure_Optimization: 'GGA+U Structure Optimization'>, 'mp-824149': <CalcType.GGA_U_NSCF_Line: 'GGA+U NSCF Line'>, 'mp-1199366': <CalcType.GGA_U_Structure_Optimization: 'GGA+U Structure Optimization'>, 'mp-731907': <CalcType.GGA_Static: 'GGA Static'>, 'mp-696909': <CalcType.GGA_Structure_Optimization: 'GGA Structure Optimization'>, 'mp-839960': <CalcType.GGA_Static: 'GGA Static'>, 'mp-840538': <CalcType.GGA_NSCF_Line: 'GGA NSCF Line'>, 'mp-1361254': <CalcType.GGA_U_Static: 'GGA+U Static'>, 'mp-1891511': <CalcType.GGA_U_Static: 'GGA+U Static'>, 'mp-841158': <CalcType.GGA_NSCF_Line: 'GGA NSCF Line'>, 'mp-824914': <CalcType.GGA_U_NSCF_Line: 'GGA+U NSCF Line'>}"
mp-759559,Na6 Li2 Mn2 B2 P2 O14,2.6676,"{'mp-763842': <CalcType.GGA_U_Structure_Optimization: 'GGA+U Structure Optimization'>, 'mp-800185': <CalcType.GGA_U_Static: 'GGA+U Static'>, 'mp-804338': <CalcType.GGA_U_NSCF_Line: 'GGA+U NSCF Line'>, 'mp-759559': <CalcType.GGA_Structure_Optimization: 'GGA Structure Optimization'>, 'mp-829453': <CalcType.GGA_NSCF_Line: 'GGA NSCF Line'>, 'mp-827469': <CalcType.GGA_Static: 'GGA Static'>, 'mp-1347741': <CalcType.GGA_U_Static: 'GGA+U Static'>, 'mp-1665320': <CalcType.GGA_U_Structure_Optimization: 'GGA+U Structure Optimization'>, 'mp-1665928': <CalcType.GGA_U_Structure_Optimization: 'GGA+U Structure Optimization'>, 'mp-1664542': <CalcType.GGA_U_Structure_Optimization: 'GGA+U Structure Optimization'>, 'mp-1664755': <CalcType.GGA_U_Structure_Optimization: 'GGA+U Structure Optimization'>, 'mp-1662571': <CalcType.GGA_U_Static: 'GGA+U Static'>, 'mp-1663576': <CalcType.GGA_U_Static: 'GGA+U Static'>, 'mp-1665980': <CalcType.GGA_U_Structure_Optimization: 'GGA+U Structure Optimization'>, 'mp-1663981': <CalcType.GGA_U_Structure_Optimization: 'GGA+U Structure Optimization'>, 'mp-1664580': <CalcType.GGA_U_Static: 'GGA+U Static'>, 'mp-1664393': <CalcType.GGA_U_Structure_Optimization: 'GGA+U Structure Optimization'>, 'mp-1661620': <CalcType.GGA_U_Static: 'GGA+U Static'>, 'mp-1663417': <CalcType.GGA_U_Structure_Optimization: 'GGA+U Structure Optimization'>, 'mp-1663239': <CalcType.GGA_U_Structure_Optimization: 'GGA+U Structure Optimization'>, 'mp-1842738': <CalcType.GGA_U_Static: 'GGA+U Static'>, 'mp-830089': <CalcType.GGA_NSCF_Line: 'GGA NSCF Line'>, 'mp-806319': <CalcType.GGA_U_NSCF_Line: 'GGA+U NSCF Line'>}"
mp-775936,Na6 Li2 Cu2 P2 C2 O14,1.8161,"{'mp-775936': <CalcType.GGA_Structure_Optimization: 'GGA Structure Optimization'>, 'mp-787842': <CalcType.GGA_Static: 'GGA Static'>, 'mp-844444': <CalcType.GGA_NSCF_Line: 'GGA NSCF Line'>, 'mp-1367364': <CalcType.GGA_Static: 'GGA Static'>, 'mp-1809100': <CalcType.GGA_Static: 'GGA Static'>, 'mp-793886': <CalcType.GGA_NSCF_Line: 'GGA NSCF Line'>}"
mp-776432,Na4 Li2 Cu2 P2 C2 O14,0.277499999999999,"{'mp-776432': <CalcType.GGA_Structure_Optimization: 'GGA Structure Optimization'>, 'mp-902710': <CalcType.GGA_NSCF_Line: 'GGA NSCF Line'>, 'mp-889141': <CalcType.GGA_Static: 'GGA Static'>, 'mp-1333209': <CalcType.GGA_Static: 'GGA Static'>, 'mp-1807604': <CalcType.GGA_Static: 'GGA Static'>, 'mp-903417': <CalcType.GGA_NSCF_Line: 'GGA NSCF Line'>}"
mp-2228460,Ba2 Y1 Mg1 Mn2 Tl1 O7,0.8718,"{'mp-2228460': <CalcType.GGA_U_Structure_Optimization: 'GGA+U Structure Optimization'>, 'mp-2228572': <CalcType.GGA_U_Static: 'GGA+U Static'>}"
mp-2228484,Sr2 Y1 Mg1 Tl1 Fe2 O7,0.40130000000000005,"{'mp-2228484': <CalcType.GGA_U_Static: 'GGA+U Static'>, 'mp-2228578': <CalcType.GGA_U_Structure_Optimization: 'GGA+U Structure Optimization'>}"
mp-1195779,Na4 Nd4 P8 H8 C4 O28,0.250299999999999,"{'mp-1195779': <CalcType.GGA_Structure_Optimization: 'GGA Structure Optimization'>, 'mp-1372917': <CalcType.GGA_Static: 'GGA Static'>, 'mp-1683931': <CalcType.GGA_NSCF_Uniform: 'GGA NSCF Uniform'>, 'mp-1885260': <CalcType.GGA_Static: 'GGA Static'>}"
mp-1195950,Na4 La4 P8 H16 C4 O28,4.7036,"{'mp-1195950': <CalcType.GGA_Structure_Optimization: 'GGA Structure Optimization'>, 'mp-1360850': <CalcType.GGA_Static: 'GGA Static'>, 'mp-1884169': <CalcType.GGA_Static: 'GGA Static'>}"
mp-1196604,Na4 Ce4 P8 H8 C4 O28,0.7201000000000001,"{'mp-1196604': <CalcType.GGA_Structure_Optimization: 'GGA Structure Optimization'>, 'mp-1378394': <CalcType.GGA_Static: 'GGA Static'>, 'mp-1885033': <CalcType.GGA_Static: 'GGA Static'>}"
mp-1199131,Na4 Eu4 P8 H16 C4 O28,0.0,"{'mp-1199131': <CalcType.GGA_Structure_Optimization: 'GGA Structure Optimization'>, 'mp-1356777': <CalcType.GGA_Static: 'GGA Static'>, 'mp-1938396': <CalcType.GGA_Static: 'GGA Static'>}"
mp-1199113,Na4 Tb4 P8 H8 C4 O28,0.43610000000000004,"{'mp-1199113': <CalcType.GGA_Structure_Optimization: 'GGA Structure Optimization'>, 'mp-1377389': <CalcType.GGA_Static: 'GGA Static'>, 'mp-1906746': <CalcType.GGA_Static: 'GGA Static'>}"
mp-1199675,Fe4 P4 H24 C8 S4 O28,0.010899999999999,"{'mp-1199675': <CalcType.GGA_U_Structure_Optimization: 'GGA+U Structure Optimization'>, 'mp-1897082': <CalcType.GGA_U_Static: 'GGA+U Static'>, 'mp-1982797': <CalcType.GGA_U_Static: 'GGA+U Static'>}"
mp-1199704,Na4 Pr4 P8 H16 C4 O28,4.8134999999999994,"{'mp-1199704': <CalcType.GGA_Structure_Optimization: 'GGA Structure Optimization'>, 'mp-1884411': <CalcType.GGA_Static: 'GGA Static'>}"
mp-1203390,Na4 Sm4 P8 H16 C4 O28,5.1941,"{'mp-1203390': <CalcType.GGA_Structure_Optimization: 'GGA Structure Optimization'>, 'mp-1354835': <CalcType.GGA_Static: 'GGA Static'>, 'mp-1935811': <CalcType.GGA_Static: 'GGA Static'>}"
mp-1202938,Na4 Gd4 P8 H8 C4 O28,0.271499999999999,"{'mp-1202938': <CalcType.GGA_Structure_Optimization: 'GGA Structure Optimization'>, 'mp-1378721': <CalcType.GGA_Static: 'GGA Static'>, 'mp-1773216': <CalcType.GGA_Static: 'GGA Static'>, 'mp-1873676': <CalcType.GGA_Static: 'GGA Static'>}"
mp-1203533,U4 H24 C12 Se4 N8 O28,2.2132,"{'mp-1203533': <CalcType.GGA_Structure_Optimization: 'GGA Structure Optimization'>, 'mp-1364212': <CalcType.GGA_Static: 'GGA Static'>, 'mp-1849391': <CalcType.GGA_Static: 'GGA Static'>}"
mp-1203951,Mo8 H72 C24 N4 Cl4 O28,3.1916,"{'mp-1203951': <CalcType.GGA_U_Structure_Optimization: 'GGA+U Structure Optimization'>, 'mp-1982143': <CalcType.GGA_U_Static: 'GGA+U Static'>}"
mp-1204541,Co4 P4 H32 C12 N12 O28,2.6717,"{'mp-1204541': <CalcType.GGA_U_Structure_Optimization: 'GGA+U Structure Optimization'>, 'mp-1848366': <CalcType.GGA_U_Static: 'GGA+U Static'>, 'mp-1985384': <CalcType.GGA_U_Static: 'GGA+U Static'>}"
mp-1204537,Na4 Dy4 P8 H8 C4 O28,0.458099999999999,"{'mp-1204537': <CalcType.GGA_Structure_Optimization: 'GGA Structure Optimization'>, 'mp-1347452': <CalcType.GGA_Static: 'GGA Static'>, 'mp-1889748': <CalcType.GGA_Static: 'GGA Static'>}"
mp-1204634,U4 H168 C56 S28 Cl16 O28,0.22729999999999903,{'mp-1204634': <CalcType.GGA_Structure_Optimization: 'GGA Structure Optimization'>}
mp-1209405,Sr4 H24 C24 S8 N8 O28,2.7544,"{'mp-1209405': <CalcType.GGA_Structure_Optimization: 'GGA Structure Optimization'>, 'mp-1845869': <CalcType.GGA_Static: 'GGA Static'>}"
mp-1205248,K12 H12 Pt4 S8 Br8 O28,2.8523,"{'mp-1205248': <CalcType.GGA_Structure_Optimization: 'GGA Structure Optimization'>, 'mp-1363998': <CalcType.GGA_Static: 'GGA Static'>}"
mp-1210579,Na8 Ca4 Zr4 Si8 O28 F8,4.6892,"{'mp-1210579': <CalcType.GGA_Structure_Optimization: 'GGA Structure Optimization'>, 'mp-1364477': <CalcType.GGA_Static: 'GGA Static'>, 'mp-1868531': <CalcType.GGA_Static: 'GGA Static'>}"
mp-1212205,K4 Co4 H8 C4 N16 O28,0.7127,"{'mp-1212205': <CalcType.GGA_U_Structure_Optimization: 'GGA+U Structure Optimization'>, 'mp-1325167': <CalcType.GGA_U_Static: 'GGA+U Static'>, 'mp-1847585': <CalcType.GGA_U_Static: 'GGA+U Static'>}"
mp-1238260,Cs8 Mo8 H16 C16 S8 O56,0.0176,"{'mp-1238260': <CalcType.GGA_U_Structure_Optimization: 'GGA+U Structure Optimization'>, 'mp-1336031': <CalcType.GGA_U_Static: 'GGA+U Static'>}"
mp-600177,K4 H52 C4 Br4 N4 O28,1.8406,"{'mp-659048': <CalcType.GGA_NSCF_Line: 'GGA NSCF Line'>, 'mp-655742': <CalcType.GGA_NSCF_Line: 'GGA NSCF Line'>, 'mp-655044': <CalcType.GGA_Static: 'GGA Static'>, 'mp-600177': <CalcType.GGA_Structure_Optimization: 'GGA Structure Optimization'>, 'mp-1364519': <CalcType.GGA_Static: 'GGA Static'>, 'mp-1844916': <CalcType.GGA_Static: 'GGA Static'>}"
mp-699253,K8 H8 C12 S8 O28 F24,5.5289,"{'mp-732257': <CalcType.GGA_Static: 'GGA Static'>, 'mp-860556': <CalcType.GGA_NSCF_Line: 'GGA NSCF Line'>, 'mp-699253': <CalcType.GGA_Structure_Optimization: 'GGA Structure Optimization'>, 'mp-1328301': <CalcType.GGA_Static: 'GGA Static'>, 'mp-750449': <CalcType.GGA_NSCF_Line: 'GGA NSCF Line'>, 'mp-1847978': <CalcType.GGA_Static: 'GGA Static'>}"
mp-722272,Li4 H24 C6 S2 N12 O14,5.0287,"{'mp-722272': <CalcType.GGA_Structure_Optimization: 'GGA Structure Optimization'>, 'mp-843839': <CalcType.GGA_NSCF_Line: 'GGA NSCF Line'>, 'mp-1353900': <CalcType.GGA_Static: 'GGA Static'>, 'mp-1888013': <CalcType.GGA_Static: 'GGA Static'>, 'mp-844762': <CalcType.GGA_NSCF_Line: 'GGA NSCF Line'>, 'mp-745799': <CalcType.GGA_NSCF_Line: 'GGA NSCF Line'>}"
mp-2231172,Mg1 Ag6 Mo2 Cl1 O7 F3,0.0,{'mp-2231172': <CalcType.GGA_U_Structure_Optimization: 'GGA+U Structure Optimization'>}
mp-1181015,Mo6 C14 Br6 N2 Cl6 O14,0.3186,"{'mp-1181015': <CalcType.GGA_U_Structure_Optimization: 'GGA+U Structure Optimization'>, 'mp-1201041': <CalcType.GGA_U_Structure_Optimization: 'GGA+U Structure Optimization'>, 'mp-1330974': <CalcType.GGA_U_Static: 'GGA+U Static'>, 'mp-1847877': <CalcType.GGA_U_Static: 'GGA+U Static'>}"
mp-1203047,U2 H12 C4 Se2 N6 O14,2.058799999999999,"{'mp-1203047': <CalcType.GGA_Structure_Optimization: 'GGA Structure Optimization'>, 'mp-1825363': <CalcType.GGA_Static: 'GGA Static'>, 'mp-1985432': <CalcType.GGA_Static: 'GGA Static'>}"
mp-1221113,Na2 Lu2 P4 H4 C2 O14,0.1746,"{'mp-1221113': <CalcType.GGA_Structure_Optimization: 'GGA Structure Optimization'>, 'mp-1330630': <CalcType.GGA_Static: 'GGA Static'>}"
mp-1667394,Na4 Li8 Mn4 P4 C4 O28,3.598799999999999,"{'mp-1667394': <CalcType.GGA_U_Structure_Optimization: 'GGA+U Structure Optimization'>, 'mp-1885124': <CalcType.GGA_U_Static: 'GGA+U Static'>}"
mp-558613,V2 H32 C12 N12 O14 F4,1.3165,"{'mp-694477': <CalcType.GGA_U_NSCF_Line: 'GGA+U NSCF Line'>, 'mp-711696': <CalcType.GGA_U_NSCF_Line: 'GGA+U NSCF Line'>, 'mp-565253': <CalcType.GGA_U_Structure_Optimization: 'GGA+U Structure Optimization'>, 'mp-601345': <CalcType.GGA_U_Structure_Optimization: 'GGA+U Structure Optimization'>, 'mp-672511': <CalcType.GGA_U_Static: 'GGA+U Static'>, 'mp-558613': <CalcType.GGA_Structure_Optimization: 'GGA Structure Optimization'>, 'mp-835073': <CalcType.GGA_NSCF_Line: 'GGA NSCF Line'>, 'mp-825441': <CalcType.GGA_Static: 'GGA Static'>, 'mp-1352267': <CalcType.GGA_U_Static: 'GGA+U Static'>, 'mp-1680829': <CalcType.GGA_U_NSCF_Uniform: 'GGA+U NSCF Uniform'>, 'mp-1937744': <CalcType.GGA_U_Static: 'GGA+U Static'>, 'mp-835834': <CalcType.GGA_NSCF_Line: 'GGA NSCF Line'>}"
mp-698293,V2 P2 H12 C4 N6 O14,1.7746,"{'mp-824581': <CalcType.GGA_U_NSCF_Line: 'GGA+U NSCF Line'>, 'mp-818586': <CalcType.GGA_U_Static: 'GGA+U Static'>, 'mp-743915': <CalcType.GGA_U_Structure_Optimization: 'GGA+U Structure Optimization'>, 'mp-732244': <CalcType.GGA_Static: 'GGA Static'>, 'mp-698293': <CalcType.GGA_Structure_Optimization: 'GGA Structure Optimization'>, 'mp-840128': <CalcType.GGA_NSCF_Line: 'GGA NSCF Line'>, 'mp-1400460': <CalcType.GGA_U_Static: 'GGA+U Static'>, 'mp-1731269': <CalcType.GGA_U_NSCF_Uniform: 'GGA+U NSCF Uniform'>, 'mp-1822680': <CalcType.GGA_U_Static: 'GGA+U Static'>, 'mp-840701': <CalcType.GGA_NSCF_Line: 'GGA NSCF Line'>, 'mp-825119': <CalcType.GGA_U_NSCF_Line: 'GGA+U NSCF Line'>}"
mp-756248,Na4 Li8 Fe4 P4 C4 O28,4.1429,"{'mp-813164': <CalcType.GGA_U_NSCF_Line: 'GGA+U NSCF Line'>, 'mp-772706': <CalcType.GGA_U_Structure_Optimization: 'GGA+U Structure Optimization'>, 'mp-804215': <CalcType.GGA_U_Static: 'GGA+U Static'>, 'mp-756248': <CalcType.GGA_Structure_Optimization: 'GGA Structure Optimization'>, 'mp-887032': <CalcType.GGA_Static: 'GGA Static'>, 'mp-1367294': <CalcType.GGA_U_Static: 'GGA+U Static'>, 'mp-1579335': <CalcType.GGA_U_Structure_Optimization: 'GGA+U Structure Optimization'>, 'mp-1653127': <CalcType.GGA_U_Static: 'GGA+U Static'>, 'mp-1652955': <CalcType.GGA_U_Static: 'GGA+U Static'>, 'mp-1652779': <CalcType.GGA_U_Static: 'GGA+U Static'>, 'mp-1650492': <CalcType.GGA_U_Structure_Optimization: 'GGA+U Structure Optimization'>, 'mp-1651032': <CalcType.GGA_U_Structure_Optimization: 'GGA+U Structure Optimization'>, 'mp-1651755': <CalcType.GGA_U_Structure_Optimization: 'GGA+U Structure Optimization'>, 'mp-1650341': <CalcType.GGA_U_Structure_Optimization: 'GGA+U Structure Optimization'>, 'mp-1652631': <CalcType.GGA_U_Static: 'GGA+U Static'>, 'mp-1650872': <CalcType.GGA_U_Structure_Optimization: 'GGA+U Structure Optimization'>, 'mp-1650173': <CalcType.GGA_U_Static: 'GGA+U Static'>, 'mp-1654072': <CalcType.GGA_U_Static: 'GGA+U Static'>, 'mp-1650530': <CalcType.GGA_U_Structure_Optimization: 'GGA+U Structure Optimization'>, 'mp-1650189': <CalcType.GGA_U_Structure_Optimization: 'GGA+U Structure Optimization'>, 'mp-1651598': <CalcType.GGA_U_Static: 'GGA+U Static'>, 'mp-1653549': <CalcType.GGA_U_Static: 'GGA+U Static'>, 'mp-1651616': <CalcType.GGA_U_Structure_Optimization: 'GGA+U Structure Optimization'>, 'mp-1651642': <CalcType.GGA_U_Structure_Optimization: 'GGA+U Structure Optimization'>, 'mp-1651459': <CalcType.GGA_U_Static: 'GGA+U Static'>, 'mp-1650056': <CalcType.GGA_U_Structure_Optimization: 'GGA+U Structure Optimization'>, 'mp-1649268': <CalcType.GGA_U_Static: 'GGA+U Static'>, 'mp-1667716': <CalcType.GGA_U_Structure_Optimization: 'GGA+U Structure Optimization'>, 'mp-1666917': <CalcType.GGA_U_Static: 'GGA+U Static'>, 'mp-1666745': <CalcType.GGA_U_Structure_Optimization: 'GGA+U Structure Optimization'>, 'mp-1666849': <CalcType.GGA_U_Structure_Optimization: 'GGA+U Structure Optimization'>, 'mp-1667271': <CalcType.GGA_U_Static: 'GGA+U Static'>, 'mp-813899': <CalcType.GGA_U_NSCF_Line: 'GGA+U NSCF Line'>, 'mp-1979323': <CalcType.GGA_U_Static: 'GGA+U Static'>, 'mp-1979066': <CalcType.GGA_U_Static: 'GGA+U Static'>, 'mp-1986022': <CalcType.GGA_U_Static: 'GGA+U Static'>, 'mp-1986031': <CalcType.GGA_U_Static: 'GGA+U Static'>, 'mp-1987052': <CalcType.GGA_U_Static: 'GGA+U Static'>, 'mp-1982793': <CalcType.GGA_U_Static: 'GGA+U Static'>, 'mp-1985816': <CalcType.GGA_U_Static: 'GGA+U Static'>, 'mp-1986837': <CalcType.GGA_U_Static: 'GGA+U Static'>, 'mp-1983529': <CalcType.GGA_U_Static: 'GGA+U Static'>, 'mp-1983301': <CalcType.GGA_U_Static: 'GGA+U Static'>, 'mp-1983330': <CalcType.GGA_U_Static: 'GGA+U Static'>, 'mp-1986970': <CalcType.GGA_U_Static: 'GGA+U Static'>, 'mp-1987840': <CalcType.GGA_U_Static: 'GGA+U Static'>, 'mp-1987655': <CalcType.GGA_U_Static: 'GGA+U Static'>}"
mp-771003,Na2 Li4 Mn2 P2 C2 O14,3.8639,"{'mp-771441': <CalcType.GGA_U_Structure_Optimization: 'GGA+U Structure Optimization'>, 'mp-803689': <CalcType.GGA_U_Static: 'GGA+U Static'>, 'mp-812019': <CalcType.GGA_U_NSCF_Line: 'GGA+U NSCF Line'>, 'mp-832494': <CalcType.GGA_NSCF_Line: 'GGA NSCF Line'>, 'mp-771003': <CalcType.GGA_Structure_Optimization: 'GGA Structure Optimization'>, 'mp-828670': <CalcType.GGA_Static: 'GGA Static'>, 'mp-1370393': <CalcType.GGA_U_Static: 'GGA+U Static'>, 'mp-1576340': <CalcType.GGA_U_Structure_Optimization: 'GGA+U Structure Optimization'>, 'mp-1641813': <CalcType.GGA_U_Static: 'GGA+U Static'>, 'mp-1667822': <CalcType.GGA_U_Structure_Optimization: 'GGA+U Structure Optimization'>, 'mp-1810322': <CalcType.GGA_U_Static: 'GGA+U Static'>, 'mp-833209': <CalcType.GGA_NSCF_Line: 'GGA NSCF Line'>, 'mp-812597': <CalcType.GGA_U_NSCF_Line: 'GGA+U NSCF Line'>}"
mp-1235322,Ba2 Li1 Sm1 Co1 Cu2 O7,0.0,"{'mp-1235322': <CalcType.GGA_U_Structure_Optimization: 'GGA+U Structure Optimization'>, 'mp-1235982': <CalcType.GGA_U_Static: 'GGA+U Static'>}"
mp-2219163,La1 Mg1 Ta2 Cu1 Cl1 O7,0.0,"{'mp-2220084': <CalcType.GGA_Static: 'GGA Static'>, 'mp-2219163': <CalcType.GGA_Structure_Optimization: 'GGA Structure Optimization'>}"
mp-2228066,La1 Mg1 Nb2 Cu1 Cl1 O7,0.0,"{'mp-2228066': <CalcType.GGA_Structure_Optimization: 'GGA Structure Optimization'>, 'mp-2242105': <CalcType.GGA_Static: 'GGA Static'>}"
mp-1235388,Ba2 Li1 Sm1 Co1 Cu2 O7,0.0,"{'mp-1235388': <CalcType.GGA_U_Structure_Optimization: 'GGA+U Structure Optimization'>, 'mp-1235601': <CalcType.GGA_U_Static: 'GGA+U Static'>, 'mp-2902307': <CalcType.r2SCAN_Structure_Optimization: 'r2SCAN Structure Optimization'>}"
mp-1235462,Ba2 Li1 Sm1 Co1 Cu2 O7,0.0,"{'mp-1235462': <CalcType.GGA_U_Static: 'GGA+U Static'>, 'mp-1236637': <CalcType.GGA_U_Structure_Optimization: 'GGA+U Structure Optimization'>}"
mp-2228455,Ba2 Y1 Mg1 Mn2 Tl1 O7,0.0,{'mp-2228455': <CalcType.GGA_U_Structure_Optimization: 'GGA+U Structure Optimization'>}
mp-1235744,Ba2 Li1 Sm1 Co1 Cu2 O7,0.0,"{'mp-1235744': <CalcType.GGA_U_Structure_Optimization: 'GGA+U Structure Optimization'>, 'mp-1236048': <CalcType.GGA_U_Static: 'GGA+U Static'>}"