Material ID,Composition,Band Gap,Calc Types
mp-755665,Na6 Li6 Fe4 P4 C4 O28,4.0329,"{'mp-803636': <CalcType.GGA_U_Static: 'GGA+U Static'>, 'mp-770914': <CalcType.GGA_U_Structure_Optimization: 'GGA+U Structure Optimization'>, 'mp-811920': <CalcType.GGA_U_NSCF_Line: 'GGA+U NSCF Line'>, 'mp-755665': <CalcType.GGA_Structure_Optimization: 'GGA Structure Optimization'>, 'mp-1372446': <CalcType.GGA_U_Static: 'GGA+U Static'>, 'mp-812538': <CalcType.GGA_U_NSCF_Line: 'GGA+U NSCF Line'>, 'mp-1581405': <CalcType.GGA_U_Structure_Optimization: 'GGA+U Structure Optimization'>, 'mp-1652057': <CalcType.GGA_U_Structure_Optimization: 'GGA+U Structure Optimization'>, 'mp-1654006': <CalcType.GGA_U_Structure_Optimization: 'GGA+U Structure Optimization'>, 'mp-1652600': <CalcType.GGA_U_Static: 'GGA+U Static'>, 'mp-1650829': <CalcType.GGA_U_Structure_Optimization: 'GGA+U Structure Optimization'>, 'mp-1649975': <CalcType.GGA_U_Static: 'GGA+U Static'>, 'mp-1653516': <CalcType.GGA_U_Static: 'GGA+U Static'>, 'mp-1652103': <CalcType.GGA_U_Static: 'GGA+U Static'>, 'mp-1653360': <CalcType.GGA_U_Structure_Optimization: 'GGA+U Structure Optimization'>, 'mp-1650705': <CalcType.GGA_U_Structure_Optimization: 'GGA+U Structure Optimization'>, 'mp-1652132': <CalcType.GGA_U_Structure_Optimization: 'GGA+U Structure Optimization'>, 'mp-1653037': <CalcType.GGA_U_Structure_Optimization: 'GGA+U Structure Optimization'>, 'mp-1653392': <CalcType.GGA_U_Static: 'GGA+U Static'>, 'mp-1653763': <CalcType.GGA_U_Static: 'GGA+U Static'>, 'mp-1652001': <CalcType.GGA_U_Static: 'GGA+U Static'>, 'mp-1667039': <CalcType.GGA_U_Structure_Optimization: 'GGA+U Structure Optimization'>, 'mp-1667151': <CalcType.GGA_U_Structure_Optimization: 'GGA+U Structure Optimization'>, 'mp-1667417': <CalcType.GGA_U_Structure_Optimization: 'GGA+U Structure Optimization'>, 'mp-1667251': <CalcType.GGA_U_Structure_Optimization: 'GGA+U Structure Optimization'>, 'mp-1666935': <CalcType.GGA_U_Static: 'GGA+U Static'>, 'mp-1979090': <CalcType.GGA_U_Static: 'GGA+U Static'>, 'mp-1979495': <CalcType.GGA_U_Static: 'GGA+U Static'>, 'mp-1987014': <CalcType.GGA_U_Static: 'GGA+U Static'>, 'mp-1987032': <CalcType.GGA_U_Static: 'GGA+U Static'>, 'mp-1983103': <CalcType.GGA_U_Static: 'GGA+U Static'>, 'mp-1986523': <CalcType.GGA_U_Static: 'GGA+U Static'>, 'mp-1984885': <CalcType.GGA_U_Static: 'GGA+U Static'>, 'mp-1983574': <CalcType.GGA_U_Static: 'GGA+U Static'>, 'mp-1983287': <CalcType.GGA_U_Static: 'GGA+U Static'>, 'mp-1984946': <CalcType.GGA_U_Static: 'GGA+U Static'>, 'mp-1985971': <CalcType.GGA_U_Static: 'GGA+U Static'>, 'mp-1987568': <CalcType.GGA_U_Static: 'GGA+U Static'>, 'mp-885755': <CalcType.GGA_Static: 'GGA Static'>}"
mp-771021,Na6 Li6 Mn4 P4 C4 O28,3.787199999999999,"{'mp-771467': <CalcType.GGA_U_Structure_Optimization: 'GGA+U Structure Optimization'>, 'mp-803706': <CalcType.GGA_U_Static: 'GGA+U Static'>, 'mp-812006': <CalcType.GGA_U_NSCF_Line: 'GGA+U NSCF Line'>, 'mp-771021': <CalcType.GGA_Structure_Optimization: 'GGA Structure Optimization'>, 'mp-1340227': <CalcType.GGA_U_Static: 'GGA+U Static'>, 'mp-812621': <CalcType.GGA_U_NSCF_Line: 'GGA+U NSCF Line'>, 'mp-833215': <CalcType.GGA_NSCF_Line: 'GGA NSCF Line'>, 'mp-1581847': <CalcType.GGA_U_Structure_Optimization: 'GGA+U Structure Optimization'>, 'mp-1653654': <CalcType.GGA_U_Structure_Optimization: 'GGA+U Structure Optimization'>, 'mp-1651370': <CalcType.GGA_U_Static: 'GGA+U Static'>, 'mp-1651944': <CalcType.GGA_U_Structure_Optimization: 'GGA+U Structure Optimization'>, 'mp-1652649': <CalcType.GGA_U_Static: 'GGA+U Static'>, 'mp-1650019': <CalcType.GGA_U_Static: 'GGA+U Static'>, 'mp-1667544': <CalcType.GGA_U_Structure_Optimization: 'GGA+U Structure Optimization'>, 'mp-1666485': <CalcType.GGA_U_Static: 'GGA+U Static'>, 'mp-1667319': <CalcType.GGA_U_Static: 'GGA+U Static'>, 'mp-1666446': <CalcType.GGA_U_Structure_Optimization: 'GGA+U Structure Optimization'>, 'mp-1874779': <CalcType.GGA_U_Static: 'GGA+U Static'>, 'mp-1576570': <CalcType.GGA_U_Structure_Optimization: 'GGA+U Structure Optimization'>, 'mp-828682': <CalcType.GGA_Static: 'GGA Static'>, 'mp-832503': <CalcType.GGA_NSCF_Line: 'GGA NSCF Line'>}"
mp-754428,Na10 Li2 Mn4 P4 C4 O28,3.5708,"{'mp-770027': <CalcType.GGA_U_Structure_Optimization: 'GGA+U Structure Optimization'>, 'mp-803062': <CalcType.GGA_U_Static: 'GGA+U Static'>, 'mp-810618': <CalcType.GGA_U_NSCF_Line: 'GGA+U NSCF Line'>, 'mp-754428': <CalcType.GGA_Structure_Optimization: 'GGA Structure Optimization'>, 'mp-1374476': <CalcType.GGA_U_Static: 'GGA+U Static'>, 'mp-831631': <CalcType.GGA_NSCF_Line: 'GGA NSCF Line'>, 'mp-811427': <CalcType.GGA_U_NSCF_Line: 'GGA+U NSCF Line'>, 'mp-1577266': <CalcType.GGA_U_Structure_Optimization: 'GGA+U Structure Optimization'>, 'mp-1576567': <CalcType.GGA_U_Structure_Optimization: 'GGA+U Structure Optimization'>, 'mp-1652953': <CalcType.GGA_U_Static: 'GGA+U Static'>, 'mp-1651015': <CalcType.GGA_U_Static: 'GGA+U Static'>, 'mp-1653733': <CalcType.GGA_U_Static: 'GGA+U Static'>, 'mp-1667130': <CalcType.GGA_U_Structure_Optimization: 'GGA+U Structure Optimization'>, 'mp-1666385': <CalcType.GGA_U_Structure_Optimization: 'GGA+U Structure Optimization'>, 'mp-1667813': <CalcType.GGA_U_Structure_Optimization: 'GGA+U Structure Optimization'>, 'mp-1666992': <CalcType.GGA_U_Static: 'GGA+U Static'>, 'mp-1666999': <CalcType.GGA_U_Structure_Optimization: 'GGA+U Structure Optimization'>, 'mp-1666687': <CalcType.GGA_U_Static: 'GGA+U Static'>, 'mp-1667686': <CalcType.GGA_U_Static: 'GGA+U Static'>, 'mp-1667113': <CalcType.GGA_U_Static: 'GGA+U Static'>, 'mp-1887238': <CalcType.GGA_U_Static: 'GGA+U Static'>, 'mp-1582318': <CalcType.GGA_U_Structure_Optimization: 'GGA+U Structure Optimization'>, 'mp-828064': <CalcType.GGA_Static: 'GGA Static'>, 'mp-830625': <CalcType.GGA_NSCF_Line: 'GGA NSCF Line'>}"
mp-770835,Na3 Li3 Mn2 P2 C2 O14,3.6139,"{'mp-771416': <CalcType.GGA_U_Structure_Optimization: 'GGA+U Structure Optimization'>, 'mp-803672': <CalcType.GGA_U_Static: 'GGA+U Static'>, 'mp-811988': <CalcType.GGA_U_NSCF_Line: 'GGA+U NSCF Line'>, 'mp-770835': <CalcType.GGA_Structure_Optimization: 'GGA Structure Optimization'>, 'mp-832411': <CalcType.GGA_NSCF_Line: 'GGA NSCF Line'>, 'mp-1340125': <CalcType.GGA_U_Static: 'GGA+U Static'>, 'mp-833147': <CalcType.GGA_NSCF_Line: 'GGA NSCF Line'>, 'mp-812582': <CalcType.GGA_U_NSCF_Line: 'GGA+U NSCF Line'>, 'mp-1806679': <CalcType.GGA_U_Static: 'GGA+U Static'>, 'mp-828662': <CalcType.GGA_Static: 'GGA Static'>}"
mp-770929,Na3 Li3 Mn2 P2 C2 O14,3.7234,"{'mp-771421': <CalcType.GGA_U_Structure_Optimization: 'GGA+U Structure Optimization'>, 'mp-803680': <CalcType.GGA_U_Static: 'GGA+U Static'>, 'mp-811989': <CalcType.GGA_U_NSCF_Line: 'GGA+U NSCF Line'>, 'mp-770929': <CalcType.GGA_Structure_Optimization: 'GGA Structure Optimization'>, 'mp-832491': <CalcType.GGA_NSCF_Line: 'GGA NSCF Line'>, 'mp-1372248': <CalcType.GGA_U_Static: 'GGA+U Static'>, 'mp-812585': <CalcType.GGA_U_NSCF_Line: 'GGA+U NSCF Line'>, 'mp-833203': <CalcType.GGA_NSCF_Line: 'GGA NSCF Line'>, 'mp-1575226': <CalcType.GGA_U_Structure_Optimization: 'GGA+U Structure Optimization'>, 'mp-1650042': <CalcType.GGA_U_Static: 'GGA+U Static'>, 'mp-1808744': <CalcType.GGA_U_Static: 'GGA+U Static'>, 'mp-828663': <CalcType.GGA_Static: 'GGA Static'>}"
mp-771006,Na6 Li6 Fe4 P4 C4 O28,3.9639,"{'mp-803690': <CalcType.GGA_U_Static: 'GGA+U Static'>, 'mp-812011': <CalcType.GGA_U_NSCF_Line: 'GGA+U NSCF Line'>, 'mp-771438': <CalcType.GGA_U_Structure_Optimization: 'GGA+U Structure Optimization'>, 'mp-771006': <CalcType.GGA_Structure_Optimization: 'GGA Structure Optimization'>, 'mp-1376703': <CalcType.GGA_U_Static: 'GGA+U Static'>, 'mp-812593': <CalcType.GGA_U_NSCF_Line: 'GGA+U NSCF Line'>, 'mp-1581888': <CalcType.GGA_U_Structure_Optimization: 'GGA+U Structure Optimization'>, 'mp-1651355': <CalcType.GGA_U_Static: 'GGA+U Static'>, 'mp-1650470': <CalcType.GGA_U_Structure_Optimization: 'GGA+U Structure Optimization'>, 'mp-1650317': <CalcType.GGA_U_Static: 'GGA+U Static'>, 'mp-1650153': <CalcType.GGA_U_Static: 'GGA+U Static'>, 'mp-1651276': <CalcType.GGA_U_Structure_Optimization: 'GGA+U Structure Optimization'>, 'mp-1654280': <CalcType.GGA_U_Structure_Optimization: 'GGA+U Structure Optimization'>, 'mp-1653749': <CalcType.GGA_U_Static: 'GGA+U Static'>, 'mp-1653575': <CalcType.GGA_U_Static: 'GGA+U Static'>, 'mp-1666392': <CalcType.GGA_U_Static: 'GGA+U Static'>, 'mp-1667145': <CalcType.GGA_U_Static: 'GGA+U Static'>, 'mp-1667486': <CalcType.GGA_U_Static: 'GGA+U Static'>, 'mp-1667071': <CalcType.GGA_U_Structure_Optimization: 'GGA+U Structure Optimization'>, 'mp-1666991': <CalcType.GGA_U_Structure_Optimization: 'GGA+U Structure Optimization'>, 'mp-1666843': <CalcType.GGA_U_Structure_Optimization: 'GGA+U Structure Optimization'>, 'mp-1666513': <CalcType.GGA_U_Static: 'GGA+U Static'>, 'mp-1667680': <CalcType.GGA_U_Structure_Optimization: 'GGA+U Structure Optimization'>, 'mp-1667434': <CalcType.GGA_U_Static: 'GGA+U Static'>, 'mp-1667102': <CalcType.GGA_U_Structure_Optimization: 'GGA+U Structure Optimization'>, 'mp-1978993': <CalcType.GGA_U_Static: 'GGA+U Static'>, 'mp-1979581': <CalcType.GGA_U_Static: 'GGA+U Static'>, 'mp-1984989': <CalcType.GGA_U_Static: 'GGA+U Static'>, 'mp-1982692': <CalcType.GGA_U_Static: 'GGA+U Static'>, 'mp-1985018': <CalcType.GGA_U_Static: 'GGA+U Static'>, 'mp-1984738': <CalcType.GGA_U_Static: 'GGA+U Static'>, 'mp-1982134': <CalcType.GGA_U_Static: 'GGA+U Static'>, 'mp-1986107': <CalcType.GGA_U_Static: 'GGA+U Static'>, 'mp-1985481': <CalcType.GGA_U_Static: 'GGA+U Static'>, 'mp-1981944': <CalcType.GGA_U_Static: 'GGA+U Static'>, 'mp-1983272': <CalcType.GGA_U_Static: 'GGA+U Static'>, 'mp-1984631': <CalcType.GGA_U_Static: 'GGA+U Static'>, 'mp-1579782': <CalcType.GGA_U_Structure_Optimization: 'GGA+U Structure Optimization'>, 'mp-885798': <CalcType.GGA_Static: 'GGA Static'>}"
mp-771022,Na6 Li6 Fe4 P4 C4 O28,3.9313000000000002,"{'mp-771447': <CalcType.GGA_U_Structure_Optimization: 'GGA+U Structure Optimization'>, 'mp-803701': <CalcType.GGA_U_Static: 'GGA+U Static'>, 'mp-812013': <CalcType.GGA_U_NSCF_Line: 'GGA+U NSCF Line'>, 'mp-771022': <CalcType.GGA_Structure_Optimization: 'GGA Structure Optimization'>, 'mp-1372010': <CalcType.GGA_U_Static: 'GGA+U Static'>, 'mp-812607': <CalcType.GGA_U_NSCF_Line: 'GGA+U NSCF Line'>, 'mp-1575460': <CalcType.GGA_U_Structure_Optimization: 'GGA+U Structure Optimization'>, 'mp-1573950': <CalcType.GGA_U_Structure_Optimization: 'GGA+U Structure Optimization'>, 'mp-1652076': <CalcType.GGA_U_Structure_Optimization: 'GGA+U Structure Optimization'>, 'mp-1650678': <CalcType.GGA_U_Structure_Optimization: 'GGA+U Structure Optimization'>, 'mp-1651576': <CalcType.GGA_U_Static: 'GGA+U Static'>, 'mp-1652143': <CalcType.GGA_U_Structure_Optimization: 'GGA+U Structure Optimization'>, 'mp-1652337': <CalcType.GGA_U_Static: 'GGA+U Static'>, 'mp-1653407': <CalcType.GGA_U_Structure_Optimization: 'GGA+U Structure Optimization'>, 'mp-1653769': <CalcType.GGA_U_Static: 'GGA+U Static'>, 'mp-1666879': <CalcType.GGA_U_Structure_Optimization: 'GGA+U Structure Optimization'>, 'mp-1667477': <CalcType.GGA_U_Static: 'GGA+U Static'>, 'mp-1667396': <CalcType.GGA_U_Structure_Optimization: 'GGA+U Structure Optimization'>, 'mp-1667769': <CalcType.GGA_U_Static: 'GGA+U Static'>, 'mp-1888569': <CalcType.GGA_U_Static: 'GGA+U Static'>, 'mp-885816': <CalcType.GGA_Static: 'GGA Static'>}"
mp-768938,Na5 Li1 Fe2 P2 C2 O14,3.7615,"{'mp-810611': <CalcType.GGA_U_NSCF_Line: 'GGA+U NSCF Line'>, 'mp-770144': <CalcType.GGA_U_Structure_Optimization: 'GGA+U Structure Optimization'>, 'mp-803051': <CalcType.GGA_U_Static: 'GGA+U Static'>, 'mp-768938': <CalcType.GGA_Structure_Optimization: 'GGA Structure Optimization'>, 'mp-1376153': <CalcType.GGA_U_Static: 'GGA+U Static'>, 'mp-811419': <CalcType.GGA_U_NSCF_Line: 'GGA+U NSCF Line'>, 'mp-1574237': <CalcType.GGA_U_Structure_Optimization: 'GGA+U Structure Optimization'>, 'mp-1652411': <CalcType.GGA_U_Static: 'GGA+U Static'>, 'mp-1650646': <CalcType.GGA_U_Structure_Optimization: 'GGA+U Structure Optimization'>, 'mp-1652962': <CalcType.GGA_U_Static: 'GGA+U Static'>, 'mp-1654027': <CalcType.GGA_U_Static: 'GGA+U Static'>, 'mp-1653878': <CalcType.GGA_U_Structure_Optimization: 'GGA+U Structure Optimization'>, 'mp-1650525': <CalcType.GGA_U_Structure_Optimization: 'GGA+U Structure Optimization'>, 'mp-1652121': <CalcType.GGA_U_Static: 'GGA+U Static'>, 'mp-1653752': <CalcType.GGA_U_Structure_Optimization: 'GGA+U Structure Optimization'>, 'mp-1651816': <CalcType.GGA_U_Structure_Optimization: 'GGA+U Structure Optimization'>, 'mp-1654124': <CalcType.GGA_U_Structure_Optimization: 'GGA+U Structure Optimization'>, 'mp-1660341': <CalcType.GGA_U_Static: 'GGA+U Static'>, 'mp-1667399': <CalcType.GGA_U_Structure_Optimization: 'GGA+U Structure Optimization'>, 'mp-1667764': <CalcType.GGA_U_Static: 'GGA+U Static'>, 'mp-1666942': <CalcType.GGA_U_Structure_Optimization: 'GGA+U Structure Optimization'>, 'mp-1812727': <CalcType.GGA_U_Static: 'GGA+U Static'>}"
mp-771060,Na10 Li2 Ni4 P4 C4 O28,4.0258,"{'mp-803503': <CalcType.GGA_U_Static: 'GGA+U Static'>, 'mp-811784': <CalcType.GGA_U_NSCF_Line: 'GGA+U NSCF Line'>, 'mp-771060': <CalcType.GGA_U_Structure_Optimization: 'GGA+U Structure Optimization'>, 'mp-1374887': <CalcType.GGA_U_Static: 'GGA+U Static'>, 'mp-832244': <CalcType.GGA_NSCF_Line: 'GGA NSCF Line'>, 'mp-812401': <CalcType.GGA_U_NSCF_Line: 'GGA+U NSCF Line'>, 'mp-1577281': <CalcType.GGA_U_Structure_Optimization: 'GGA+U Structure Optimization'>, 'mp-1581419': <CalcType.GGA_U_Structure_Optimization: 'GGA+U Structure Optimization'>, 'mp-1650290': <CalcType.GGA_U_Static: 'GGA+U Static'>, 'mp-1653655': <CalcType.GGA_U_Structure_Optimization: 'GGA+U Structure Optimization'>, 'mp-1651194': <CalcType.GGA_U_Static: 'GGA+U Static'>, 'mp-1653683': <CalcType.GGA_U_Static: 'GGA+U Static'>, 'mp-1650336': <CalcType.GGA_U_Structure_Optimization: 'GGA+U Structure Optimization'>, 'mp-1651048': <CalcType.GGA_U_Static: 'GGA+U Static'>, 'mp-1652814': <CalcType.GGA_U_Structure_Optimization: 'GGA+U Structure Optimization'>, 'mp-1653887': <CalcType.GGA_U_Structure_Optimization: 'GGA+U Structure Optimization'>, 'mp-1650343': <CalcType.GGA_U_Structure_Optimization: 'GGA+U Structure Optimization'>, 'mp-1650898': <CalcType.GGA_U_Static: 'GGA+U Static'>, 'mp-1650726': <CalcType.GGA_U_Structure_Optimization: 'GGA+U Structure Optimization'>, 'mp-1652149': <CalcType.GGA_U_Static: 'GGA+U Static'>, 'mp-1651094': <CalcType.GGA_U_Structure_Optimization: 'GGA+U Structure Optimization'>, 'mp-1653936': <CalcType.GGA_U_Static: 'GGA+U Static'>, 'mp-1651097': <CalcType.GGA_U_Structure_Optimization: 'GGA+U Structure Optimization'>, 'mp-1651283': <CalcType.GGA_U_Static: 'GGA+U Static'>, 'mp-1653413': <CalcType.GGA_U_Static: 'GGA+U Static'>, 'mp-1652874': <CalcType.GGA_U_Static: 'GGA+U Static'>, 'mp-1653071': <CalcType.GGA_U_Static: 'GGA+U Static'>, 'mp-1652879': <CalcType.GGA_U_Structure_Optimization: 'GGA+U Structure Optimization'>, 'mp-1666626': <CalcType.GGA_U_Structure_Optimization: 'GGA+U Structure Optimization'>, 'mp-1667241': <CalcType.GGA_U_Static: 'GGA+U Static'>, 'mp-1667599': <CalcType.GGA_U_Structure_Optimization: 'GGA+U Structure Optimization'>, 'mp-1667180': <CalcType.GGA_U_Static: 'GGA+U Static'>, 'mp-1979416': <CalcType.GGA_U_Static: 'GGA+U Static'>, 'mp-1979181': <CalcType.GGA_U_Static: 'GGA+U Static'>, 'mp-1985993': <CalcType.GGA_U_Static: 'GGA+U Static'>, 'mp-1983039': <CalcType.GGA_U_Static: 'GGA+U Static'>, 'mp-1984372': <CalcType.GGA_U_Static: 'GGA+U Static'>, 'mp-1984757': <CalcType.GGA_U_Static: 'GGA+U Static'>, 'mp-1985869': <CalcType.GGA_U_Static: 'GGA+U Static'>, 'mp-1983927': <CalcType.GGA_U_Static: 'GGA+U Static'>, 'mp-1986929': <CalcType.GGA_U_Static: 'GGA+U Static'>, 'mp-1985617': <CalcType.GGA_U_Static: 'GGA+U Static'>, 'mp-1985957': <CalcType.GGA_U_Static: 'GGA+U Static'>, 'mp-1983648': <CalcType.GGA_U_Static: 'GGA+U Static'>, 'mp-1987945': <CalcType.GGA_U_Static: 'GGA+U Static'>, 'mp-828329': <CalcType.GGA_Static: 'GGA Static'>, 'mp-831886': <CalcType.GGA_NSCF_Line: 'GGA NSCF Line'>}"
mp-772419,Na2 Li10 Mn4 P4 C4 O28,1.5555999999999992,"{'mp-774194': <CalcType.GGA_U_Structure_Optimization: 'GGA+U Structure Optimization'>, 'mp-805106': <CalcType.GGA_U_Static: 'GGA+U Static'>, 'mp-813719': <CalcType.GGA_U_NSCF_Line: 'GGA+U NSCF Line'>, 'mp-772419': <CalcType.GGA_Structure_Optimization: 'GGA Structure Optimization'>, 'mp-832679': <CalcType.GGA_NSCF_Line: 'GGA NSCF Line'>, 'mp-1349667': <CalcType.GGA_U_Static: 'GGA+U Static'>, 'mp-833451': <CalcType.GGA_NSCF_Line: 'GGA NSCF Line'>, 'mp-814497': <CalcType.GGA_U_NSCF_Line: 'GGA+U NSCF Line'>, 'mp-1680616': <CalcType.GGA_U_NSCF_Uniform: 'GGA+U NSCF Uniform'>, 'mp-1893253': <CalcType.GGA_U_Static: 'GGA+U Static'>}"
mp-772515,Na2 Li10 Mn4 P4 C4 O28,3.7914,"{'mp-773687': <CalcType.GGA_U_Structure_Optimization: 'GGA+U Structure Optimization'>, 'mp-813385': <CalcType.GGA_U_NSCF_Line: 'GGA+U NSCF Line'>, 'mp-804438': <CalcType.GGA_U_Static: 'GGA+U Static'>, 'mp-772515': <CalcType.GGA_Structure_Optimization: 'GGA Structure Optimization'>, 'mp-1353233': <CalcType.GGA_U_Static: 'GGA+U Static'>, 'mp-833467': <CalcType.GGA_NSCF_Line: 'GGA NSCF Line'>, 'mp-814038': <CalcType.GGA_U_NSCF_Line: 'GGA+U NSCF Line'>, 'mp-828858': <CalcType.GGA_Static: 'GGA Static'>, 'mp-832690': <CalcType.GGA_NSCF_Line: 'GGA NSCF Line'>, 'mp-1768612': <CalcType.GGA_U_Static: 'GGA+U Static'>, 'mp-1887021': <CalcType.GGA_U_Static: 'GGA+U Static'>}"
mp-772547,Na10 Li2 Mn4 P4 C4 O28,3.6169000000000002,"{'mp-804395': <CalcType.GGA_U_Static: 'GGA+U Static'>, 'mp-813307': <CalcType.GGA_U_NSCF_Line: 'GGA+U NSCF Line'>, 'mp-773701': <CalcType.GGA_U_Structure_Optimization: 'GGA+U Structure Optimization'>, 'mp-772547': <CalcType.GGA_Structure_Optimization: 'GGA Structure Optimization'>, 'mp-832695': <CalcType.GGA_NSCF_Line: 'GGA NSCF Line'>, 'mp-1353554': <CalcType.GGA_U_Static: 'GGA+U Static'>, 'mp-814020': <CalcType.GGA_U_NSCF_Line: 'GGA+U NSCF Line'>, 'mp-833476': <CalcType.GGA_NSCF_Line: 'GGA NSCF Line'>, 'mp-1770980': <CalcType.GGA_U_Static: 'GGA+U Static'>, 'mp-1892989': <CalcType.GGA_U_Static: 'GGA+U Static'>, 'mp-828864': <CalcType.GGA_Static: 'GGA Static'>}"
mp-772637,Na6 Li6 Mn4 P4 C4 O28,3.8015,"{'mp-804400': <CalcType.GGA_U_Static: 'GGA+U Static'>, 'mp-773755': <CalcType.GGA_U_Structure_Optimization: 'GGA+U Structure Optimization'>, 'mp-813319': <CalcType.GGA_U_NSCF_Line: 'GGA+U NSCF Line'>, 'mp-772637': <CalcType.GGA_Structure_Optimization: 'GGA Structure Optimization'>, 'mp-1350102': <CalcType.GGA_U_Static: 'GGA+U Static'>, 'mp-833486': <CalcType.GGA_NSCF_Line: 'GGA NSCF Line'>, 'mp-814024': <CalcType.GGA_U_NSCF_Line: 'GGA+U NSCF Line'>, 'mp-1769512': <CalcType.GGA_U_Static: 'GGA+U Static'>, 'mp-1886276': <CalcType.GGA_U_Static: 'GGA+U Static'>, 'mp-829648': <CalcType.GGA_Static: 'GGA Static'>, 'mp-786548': <CalcType.GGA_Static: 'GGA Static'>, 'mp-832706': <CalcType.GGA_NSCF_Line: 'GGA NSCF Line'>}"
mp-772315,Na10 Li2 Mn4 P4 C4 O28,3.6191999999999993,"{'mp-773342': <CalcType.GGA_U_Structure_Optimization: 'GGA+U Structure Optimization'>, 'mp-813182': <CalcType.GGA_U_NSCF_Line: 'GGA+U NSCF Line'>, 'mp-804242': <CalcType.GGA_U_Static: 'GGA+U Static'>, 'mp-772315': <CalcType.GGA_Structure_Optimization: 'GGA Structure Optimization'>, 'mp-832657': <CalcType.GGA_NSCF_Line: 'GGA NSCF Line'>, 'mp-1349519': <CalcType.GGA_U_Static: 'GGA+U Static'>, 'mp-833434': <CalcType.GGA_NSCF_Line: 'GGA NSCF Line'>, 'mp-813930': <CalcType.GGA_U_NSCF_Line: 'GGA+U NSCF Line'>, 'mp-1770603': <CalcType.GGA_U_Static: 'GGA+U Static'>, 'mp-1938201': <CalcType.GGA_U_Static: 'GGA+U Static'>, 'mp-786361': <CalcType.GGA_Static: 'GGA Static'>}"