Material ID,Composition,Band Gap,Calc Types
mp-861714,Li4 V2 Cr2 P4 O16 F4,2.0338,"{'mp-861714': <CalcType.GGA_U_Static: 'GGA+U Static'>, 'mp-862501': <CalcType.GGA_U_NSCF_Line: 'GGA+U NSCF Line'>, 'mp-868590': <CalcType.GGA_U_Structure_Optimization: 'GGA+U Structure Optimization'>, 'mp-869104': <CalcType.GGA_U_Static: 'GGA+U Static'>, 'mp-869203': <CalcType.GGA_U_NSCF_Line: 'GGA+U NSCF Line'>, 'mp-867687': <CalcType.GGA_Structure_Optimization: 'GGA Structure Optimization'>, 'mp-883749': <CalcType.GGA_Static: 'GGA Static'>, 'mp-1338344': <CalcType.GGA_U_Static: 'GGA+U Static'>, 'mp-1838181': <CalcType.GGA_U_Static: 'GGA+U Static'>, 'mp-869216': <CalcType.GGA_U_NSCF_Line: 'GGA+U NSCF Line'>, 'mp-863596': <CalcType.GGA_U_NSCF_Line: 'GGA+U NSCF Line'>}"
mp-776501,Li4 Mn2 V2 P4 O16 F4,0.33170000000000005,"{'mp-776788': <CalcType.GGA_U_Structure_Optimization: 'GGA+U Structure Optimization'>, 'mp-808005': <CalcType.GGA_U_Static: 'GGA+U Static'>, 'mp-815011': <CalcType.GGA_U_NSCF_Line: 'GGA+U NSCF Line'>, 'mp-776501': <CalcType.GGA_Structure_Optimization: 'GGA Structure Optimization'>, 'mp-1357969': <CalcType.GGA_U_Static: 'GGA+U Static'>, 'mp-1843750': <CalcType.GGA_U_Static: 'GGA+U Static'>, 'mp-815726': <CalcType.GGA_U_NSCF_Line: 'GGA+U NSCF Line'>}"
mp-776578,Li6 Mn3 V3 P6 O24 F6,0.31070000000000003,"{'mp-1177879': <CalcType.GGA_U_Structure_Optimization: 'GGA+U Structure Optimization'>, 'mp-776578': <CalcType.GGA_Structure_Optimization: 'GGA Structure Optimization'>, 'mp-1353662': <CalcType.GGA_U_Static: 'GGA+U Static'>, 'mp-1934758': <CalcType.GGA_U_Static: 'GGA+U Static'>}"
mp-1236003,Li1 Bi3 Pb1 W1 Cl1 O8,0.0,"{'mp-1236003': <CalcType.GGA_U_Static: 'GGA+U Static'>, 'mp-1236400': <CalcType.GGA_U_Structure_Optimization: 'GGA+U Structure Optimization'>}"
mp-1233335,Ca1 Bi3 Pb1 W1 Cl1 O8,0.0,"{'mp-1233335': <CalcType.GGA_U_Structure_Optimization: 'GGA+U Structure Optimization'>, 'mp-1233904': <CalcType.GGA_U_Static: 'GGA+U Static'>}"
mp-1234758,Cs4 Mg1 Mn4 H16 Cl12 O8,1.2711000000000001,{'mp-1234758': <CalcType.GGA_U_Structure_Optimization: 'GGA+U Structure Optimization'>}
mp-1207595,Zn4 P8 H52 C8 N24 O32,0.3175,"{'mp-1207595': <CalcType.GGA_Structure_Optimization: 'GGA Structure Optimization'>, 'mp-1334982': <CalcType.GGA_Static: 'GGA Static'>}"
mp-558968,Mn8 P8 C48 S4 O32 F48,3.0306,"{'mp-727761': <CalcType.GGA_U_Static: 'GGA+U Static'>, 'mp-740513': <CalcType.GGA_U_NSCF_Line: 'GGA+U NSCF Line'>, 'mp-699860': <CalcType.GGA_U_Structure_Optimization: 'GGA+U Structure Optimization'>, 'mp-581203': <CalcType.GGA_U_Structure_Optimization: 'GGA+U Structure Optimization'>, 'mp-558968': <CalcType.GGA_Structure_Optimization: 'GGA Structure Optimization'>, 'mp-730106': <CalcType.GGA_Static: 'GGA Static'>, 'mp-838679': <CalcType.GGA_Static: 'GGA Static'>, 'mp-1334400': <CalcType.GGA_U_Static: 'GGA+U Static'>}"
mp-1197764,Cr2 Co2 H30 N10 Cl2 O16,2.3767,"{'mp-1197764': <CalcType.GGA_U_Structure_Optimization: 'GGA+U Structure Optimization'>, 'mp-1214279': <CalcType.GGA_U_Structure_Optimization: 'GGA+U Structure Optimization'>, 'mp-1238634': <CalcType.GGA_U_Structure_Optimization: 'GGA+U Structure Optimization'>, 'mp-1238638': <CalcType.GGA_U_Structure_Optimization: 'GGA+U Structure Optimization'>, 'mp-1359178': <CalcType.GGA_U_Static: 'GGA+U Static'>, 'mp-1891678': <CalcType.GGA_U_Static: 'GGA+U Static'>}"
mp-1218869,Sr2 Cu2 Ru1 Pb2 Cl1 O8,0.0,"{'mp-1218869': <CalcType.GGA_Structure_Optimization: 'GGA Structure Optimization'>, 'mp-1443747': <CalcType.GGA_Static: 'GGA Static'>, 'mp-1728871': <CalcType.GGA_NSCF_Uniform: 'GGA NSCF Uniform'>, 'mp-1776450': <CalcType.GGA_Static: 'GGA Static'>}"
mp-2232472,Ba2 La1 Mg1 Ta1 Cu2 O8,0.6784999999999991,{'mp-2232472': <CalcType.GGA_Structure_Optimization: 'GGA Structure Optimization'>}
mp-1228495,Ba2 Nb1 Cu2 Pb2 Cl1 O8,0.0,"{'mp-1228495': <CalcType.GGA_Structure_Optimization: 'GGA Structure Optimization'>, 'mp-1370848': <CalcType.GGA_Static: 'GGA Static'>, 'mp-1868804': <CalcType.GGA_Static: 'GGA Static'>}"
mp-2232363,Ba2 Nd1 Mg1 Nb1 Cu2 O8,0.8019000000000001,{'mp-2232363': <CalcType.GGA_Structure_Optimization: 'GGA Structure Optimization'>}
mp-1228449,Ba2 Ta1 Cu2 Pb2 Cl1 O8,0.0,"{'mp-1228449': <CalcType.GGA_Structure_Optimization: 'GGA Structure Optimization'>, 'mp-1346765': <CalcType.GGA_Static: 'GGA Static'>, 'mp-1775547': <CalcType.GGA_Static: 'GGA Static'>}"
mp-1198531,U2 C8 S2 N2 Cl2 O16,0.5901999999999991,"{'mp-1198531': <CalcType.GGA_Structure_Optimization: 'GGA Structure Optimization'>, 'mp-1361781': <CalcType.GGA_Static: 'GGA Static'>, 'mp-1889545': <CalcType.GGA_Static: 'GGA Static'>}"
mp-1224019,K4 Fe2 P4 H6 O16 F4,2.9297,"{'mp-1224019': <CalcType.GGA_U_Structure_Optimization: 'GGA+U Structure Optimization'>, 'mp-1814842': <CalcType.GGA_U_Static: 'GGA+U Static'>}"
mp-1220230,Rb4 Mn2 P4 H6 O16 F4,1.9783,"{'mp-1220230': <CalcType.GGA_U_Structure_Optimization: 'GGA+U Structure Optimization'>, 'mp-1238481': <CalcType.GGA_U_Structure_Optimization: 'GGA+U Structure Optimization'>, 'mp-1355189': <CalcType.GGA_U_Static: 'GGA+U Static'>, 'mp-1814936': <CalcType.GGA_U_Static: 'GGA+U Static'>}"
mp-1224478,K4 Ga2 P4 H6 O16 F4,4.9272,"{'mp-1224478': <CalcType.GGA_Structure_Optimization: 'GGA Structure Optimization'>, 'mp-1237239': <CalcType.GGA_Structure_Optimization: 'GGA Structure Optimization'>, 'mp-1361776': <CalcType.GGA_Static: 'GGA Static'>, 'mp-1818638': <CalcType.GGA_Static: 'GGA Static'>}"
mp-693132,Zn4 Ga4 P8 H16 N4 O32,3.7685,"{'mp-848836': <CalcType.GGA_NSCF_Line: 'GGA NSCF Line'>, 'mp-725705': <CalcType.GGA_Static: 'GGA Static'>, 'mp-693132': <CalcType.GGA_Structure_Optimization: 'GGA Structure Optimization'>, 'mp-1100813': <CalcType.GGA_Structure_Optimization: 'GGA Structure Optimization'>, 'mp-1327670': <CalcType.GGA_Static: 'GGA Static'>, 'mp-1897118': <CalcType.GGA_Static: 'GGA Static'>, 'mp-860063': <CalcType.GGA_NSCF_Line: 'GGA NSCF Line'>, 'mp-748039': <CalcType.GGA_NSCF_Line: 'GGA NSCF Line'>}"
mp-705041,Fe8 P12 C32 N12 Cl16 O32,2.3718,"{'mp-705041': <CalcType.GGA_U_Structure_Optimization: 'GGA+U Structure Optimization'>, 'mp-823465': <CalcType.GGA_U_NSCF_Line: 'GGA+U NSCF Line'>, 'mp-817719': <CalcType.GGA_U_Static: 'GGA+U Static'>, 'mp-723815': <CalcType.GGA_Static: 'GGA Static'>, 'mp-840180': <CalcType.GGA_NSCF_Line: 'GGA NSCF Line'>, 'mp-839079': <CalcType.GGA_Static: 'GGA Static'>, 'mp-1334445': <CalcType.GGA_U_Static: 'GGA+U Static'>, 'mp-840848': <CalcType.GGA_NSCF_Line: 'GGA NSCF Line'>, 'mp-824316': <CalcType.GGA_U_NSCF_Line: 'GGA+U NSCF Line'>}"
mp-1199010,Zn2 P4 H6 C8 N2 O16,0.015300000000000001,"{'mp-1199010': <CalcType.GGA_Structure_Optimization: 'GGA Structure Optimization'>, 'mp-1871069': <CalcType.GGA_Static: 'GGA Static'>, 'mp-1986501': <CalcType.GGA_Static: 'GGA Static'>}"
mp-1209124,Sr4 Ca2 Cu4 Bi4 I2 O16,0.0,"{'mp-1209124': <CalcType.GGA_Structure_Optimization: 'GGA Structure Optimization'>, 'mp-1361882': <CalcType.GGA_Static: 'GGA Static'>, 'mp-1929533': <CalcType.GGA_Static: 'GGA Static'>}"
mp-1202565,Ga4 P8 H60 C20 N8 O32,4.5474,"{'mp-1202565': <CalcType.GGA_Structure_Optimization: 'GGA Structure Optimization'>, 'mp-1337878': <CalcType.GGA_Static: 'GGA Static'>, 'mp-1847908': <CalcType.GGA_Static: 'GGA Static'>}"
mp-729099,Rb16 Cd8 C16 N8 Cl8 O64,0.0,"{'mp-733829': <CalcType.GGA_NSCF_Line: 'GGA NSCF Line'>, 'mp-729099': <CalcType.GGA_Static: 'GGA Static'>}"
mp-1195416,Cs8 U4 C8 S8 N16 O32,1.4194,"{'mp-1195416': <CalcType.GGA_Structure_Optimization: 'GGA Structure Optimization'>, 'mp-1327094': <CalcType.GGA_Static: 'GGA Static'>}"
mp-1225237,Ga2 P4 C6 N4 O16 F2,0.0,"{'mp-1225237': <CalcType.GGA_Structure_Optimization: 'GGA Structure Optimization'>, 'mp-1362339': <CalcType.GGA_Static: 'GGA Static'>, 'mp-1886686': <CalcType.GGA_Static: 'GGA Static'>}"
mp-849786,Zn4 P8 H60 C16 N4 O32,4.7481,"{'mp-857915': <CalcType.GGA_NSCF_Line: 'GGA NSCF Line'>, 'mp-849786': <CalcType.GGA_Structure_Optimization: 'GGA Structure Optimization'>, 'mp-856984': <CalcType.GGA_Static: 'GGA Static'>, 'mp-1337502': <CalcType.GGA_Static: 'GGA Static'>, 'mp-1844565': <CalcType.GGA_Static: 'GGA Static'>, 'mp-1629385': <CalcType.GGA_NSCF_Line: 'GGA NSCF Line'>}"
mp-2228050,K2 Rb1 Gd1 Mg1 V2 O8,1.3347,{'mp-2228050': <CalcType.GGA_U_Structure_Optimization: 'GGA+U Structure Optimization'>}
mp-2232285,K2 Rb1 Tb1 Mg1 V2 O8,1.252199999999999,{'mp-2232285': <CalcType.GGA_U_Structure_Optimization: 'GGA+U Structure Optimization'>}
mp-705517,Cs1 Co1 H18 N6 Cl4 O8,1.3269,"{'mp-817835': <CalcType.GGA_U_Static: 'GGA+U Static'>, 'mp-705517': <CalcType.GGA_U_Structure_Optimization: 'GGA+U Structure Optimization'>, 'mp-823565': <CalcType.GGA_U_NSCF_Line: 'GGA+U NSCF Line'>, 'mp-1354822': <CalcType.GGA_U_Static: 'GGA+U Static'>, 'mp-1824559': <CalcType.GGA_U_Static: 'GGA+U Static'>, 'mp-824294': <CalcType.GGA_U_NSCF_Line: 'GGA+U NSCF Line'>}"
mp-2232297,K2 Rb1 Tb1 Mg1 V2 O8,1.282799999999999,{'mp-2232297': <CalcType.GGA_U_Structure_Optimization: 'GGA+U Structure Optimization'>}
mp-1236222,Li1 Cu2 B2 H8 Cl2 O8,0.0,"{'mp-1236222': <CalcType.GGA_Static: 'GGA Static'>, 'mp-1236240': <CalcType.GGA_Structure_Optimization: 'GGA Structure Optimization'>}"
mp-1233800,Ca1 Cu2 B2 H8 Cl2 O8,1.4312,"{'mp-1233800': <CalcType.GGA_Structure_Optimization: 'GGA Structure Optimization'>, 'mp-1233927': <CalcType.GGA_Static: 'GGA Static'>}"
mp-1234759,Mg1 Cu2 B2 H8 Cl2 O8,0.8907,"{'mp-1234759': <CalcType.GGA_Structure_Optimization: 'GGA Structure Optimization'>, 'mp-1234771': <CalcType.GGA_Static: 'GGA Static'>}"
mp-1196128,Li1 Al1 H8 C16 O8 F36,5.8174,"{'mp-1196128': <CalcType.GGA_Structure_Optimization: 'GGA Structure Optimization'>, 'mp-1237862': <CalcType.GGA_Structure_Optimization: 'GGA Structure Optimization'>, 'mp-1365476': <CalcType.GGA_Static: 'GGA Static'>, 'mp-1896148': <CalcType.GGA_Static: 'GGA Static'>}"
mp-707953,Zn4 P8 H44 C8 N4 O32,4.4993,"{'mp-773928': <CalcType.GGA_Structure_Optimization: 'GGA Structure Optimization'>, 'mp-844368': <CalcType.GGA_NSCF_Line: 'GGA NSCF Line'>, 'mp-729036': <CalcType.GGA_Static: 'GGA Static'>, 'mp-707953': <CalcType.GGA_Structure_Optimization: 'GGA Structure Optimization'>, 'mp-1325684': <CalcType.GGA_Static: 'GGA Static'>, 'mp-1844648': <CalcType.GGA_Static: 'GGA Static'>, 'mp-844995': <CalcType.GGA_NSCF_Line: 'GGA NSCF Line'>, 'mp-737916': <CalcType.GGA_NSCF_Line: 'GGA NSCF Line'>}"
mp-1236302,Li1 Bi3 Pb1 W1 Cl1 O8,0.9550999999999991,"{'mp-1236302': <CalcType.GGA_U_Static: 'GGA+U Static'>, 'mp-1236352': <CalcType.GGA_U_Structure_Optimization: 'GGA+U Structure Optimization'>}"
mp-1236216,Li1 Bi3 Pb1 W1 Cl1 O8,0.0,"{'mp-1236216': <CalcType.GGA_U_Static: 'GGA+U Static'>, 'mp-1236739': <CalcType.GGA_U_Structure_Optimization: 'GGA+U Structure Optimization'>}"
mp-1235925,Li1 Bi3 Pb1 W1 Cl1 O8,0.0,"{'mp-1235925': <CalcType.GGA_U_Structure_Optimization: 'GGA+U Structure Optimization'>, 'mp-1236129': <CalcType.GGA_U_Static: 'GGA+U Static'>}"
mp-1227381,Ca2 Ti1 Al1 Si2 O9 F1,3.2274,"{'mp-1227381': <CalcType.GGA_Structure_Optimization: 'GGA Structure Optimization'>, 'mp-1385955': <CalcType.GGA_Static: 'GGA Static'>, 'mp-1732427': <CalcType.GGA_NSCF_Uniform: 'GGA NSCF Uniform'>, 'mp-1788312': <CalcType.GGA_Static: 'GGA Static'>}"
mp-698296,U2 H24 C8 S2 N4 O18,2.2285,"{'mp-698296': <CalcType.GGA_Structure_Optimization: 'GGA Structure Optimization'>, 'mp-744963': <CalcType.GGA_NSCF_Line: 'GGA NSCF Line'>, 'mp-732008': <CalcType.GGA_Static: 'GGA Static'>, 'mp-1333078': <CalcType.GGA_Static: 'GGA Static'>, 'mp-1893059': <CalcType.GGA_Static: 'GGA Static'>, 'mp-749927': <CalcType.GGA_NSCF_Line: 'GGA NSCF Line'>}"
mp-866657,Dy2 Ag2 H4 C4 S2 O18,2.9023,"{'mp-866657': <CalcType.GGA_Structure_Optimization: 'GGA Structure Optimization'>, 'mp-867027': <CalcType.GGA_Structure_Optimization: 'GGA Structure Optimization'>, 'mp-1400736': <CalcType.GGA_Static: 'GGA Static'>, 'mp-1761140': <CalcType.GGA_NSCF_Uniform: 'GGA NSCF Uniform'>, 'mp-1838236': <CalcType.GGA_Static: 'GGA Static'>, 'mp-1626346': <CalcType.GGA_NSCF_Line: 'GGA NSCF Line'>, 'mp-2102947': <CalcType.GGA_NSCF_Line: 'GGA NSCF Line'>, 'mp-2310708': <CalcType.GGA_NSCF_Line: 'GGA NSCF Line'>}"
mp-866806,Tb2 Ag2 H4 C4 S2 O18,2.9054,"{'mp-867069': <CalcType.GGA_Structure_Optimization: 'GGA Structure Optimization'>, 'mp-866806': <CalcType.GGA_Structure_Optimization: 'GGA Structure Optimization'>, 'mp-1398695': <CalcType.GGA_Static: 'GGA Static'>, 'mp-1715075': <CalcType.GGA_NSCF_Uniform: 'GGA NSCF Uniform'>, 'mp-1840821': <CalcType.GGA_Static: 'GGA Static'>, 'mp-1628325': <CalcType.GGA_NSCF_Line: 'GGA NSCF Line'>, 'mp-2153512': <CalcType.GGA_NSCF_Line: 'GGA NSCF Line'>, 'mp-2309357': <CalcType.GGA_NSCF_Line: 'GGA NSCF Line'>}"
mp-1196098,Gd4 H88 C28 N4 Cl8 O36,2.9811,"{'mp-1196098': <CalcType.GGA_Structure_Optimization: 'GGA Structure Optimization'>, 'mp-1983147': <CalcType.GGA_Static: 'GGA Static'>}"
mp-1197598,Y4 H24 C8 S4 N4 O36,3.2063,"{'mp-1197598': <CalcType.GGA_Structure_Optimization: 'GGA Structure Optimization'>, 'mp-1920693': <CalcType.GGA_Static: 'GGA Static'>, 'mp-1982596': <CalcType.GGA_Static: 'GGA Static'>}"
mp-1197776,Fe4 Te12 S12 Cl12 O36 F72,3.0463,"{'mp-1197776': <CalcType.GGA_U_Structure_Optimization: 'GGA+U Structure Optimization'>, 'mp-1338746': <CalcType.GGA_U_Static: 'GGA+U Static'>}"
mp-1197780,K4 Mn4 B4 P8 H8 O36,4.6073,"{'mp-1197780': <CalcType.GGA_U_Structure_Optimization: 'GGA+U Structure Optimization'>, 'mp-1936289': <CalcType.GGA_U_Static: 'GGA+U Static'>, 'mp-1985753': <CalcType.GGA_U_Static: 'GGA+U Static'>}"
mp-1198425,Ga4 B4 P8 H20 N4 O36,4.6499,"{'mp-1198425': <CalcType.GGA_Structure_Optimization: 'GGA Structure Optimization'>, 'mp-1892585': <CalcType.GGA_Static: 'GGA Static'>, 'mp-1987350': <CalcType.GGA_Static: 'GGA Static'>}"
mp-1198602,Dy4 H8 C8 S4 N4 O36,0.4111,"{'mp-1198602': <CalcType.GGA_Structure_Optimization: 'GGA Structure Optimization'>, 'mp-1358415': <CalcType.GGA_Static: 'GGA Static'>, 'mp-1874732': <CalcType.GGA_Static: 'GGA Static'>}"
mp-1198616,Na4 In4 B4 P8 H4 O36,4.1928,"{'mp-1198616': <CalcType.GGA_Structure_Optimization: 'GGA Structure Optimization'>, 'mp-1205050': <CalcType.GGA_Structure_Optimization: 'GGA Structure Optimization'>, 'mp-1872845': <CalcType.GGA_Static: 'GGA Static'>, 'mp-1987911': <CalcType.GGA_Static: 'GGA Static'>, 'mp-2902305': <CalcType.r2SCAN_Structure_Optimization: 'r2SCAN Structure Optimization'>}"
mp-1199480,K4 Tb4 H8 C8 S4 O36,3.0575,"{'mp-1199480': <CalcType.GGA_Structure_Optimization: 'GGA Structure Optimization'>, 'mp-1359409': <CalcType.GGA_Static: 'GGA Static'>, 'mp-1937801': <CalcType.GGA_Static: 'GGA Static'>}"
mp-1199285,Er4 H8 C8 S4 N4 O36,0.4595,"{'mp-1199285': <CalcType.GGA_Structure_Optimization: 'GGA Structure Optimization'>, 'mp-1359277': <CalcType.GGA_Static: 'GGA Static'>, 'mp-1896722': <CalcType.GGA_Static: 'GGA Static'>}"
mp-1199356,La4 H24 C8 S4 N4 O36,3.3487,"{'mp-1199356': <CalcType.GGA_Structure_Optimization: 'GGA Structure Optimization'>, 'mp-1351079': <CalcType.GGA_Static: 'GGA Static'>, 'mp-1895110': <CalcType.GGA_Static: 'GGA Static'>}"
mp-1200033,Gd4 H8 C8 S4 N4 O36,0.3791,"{'mp-1200033': <CalcType.GGA_Structure_Optimization: 'GGA Structure Optimization'>, 'mp-1379040': <CalcType.GGA_Static: 'GGA Static'>, 'mp-1878838': <CalcType.GGA_Static: 'GGA Static'>}"
mp-1201408,Cs4 Ga4 B4 P8 H4 O36,4.6544,"{'mp-1201408': <CalcType.GGA_Structure_Optimization: 'GGA Structure Optimization'>, 'mp-1359717': <CalcType.GGA_Static: 'GGA Static'>, 'mp-1920407': <CalcType.GGA_Static: 'GGA Static'>}"
mp-1202041,Sr4 P12 H40 C12 N4 O36,5.5533,"{'mp-1202041': <CalcType.GGA_Structure_Optimization: 'GGA Structure Optimization'>, 'mp-1238386': <CalcType.GGA_Structure_Optimization: 'GGA Structure Optimization'>, 'mp-1329430': <CalcType.GGA_Static: 'GGA Static'>, 'mp-1850986': <CalcType.GGA_Static: 'GGA Static'>}"
mp-1202043,Ce4 H8 C8 S4 N4 O36,0.6019999999999991,"{'mp-1202043': <CalcType.GGA_Structure_Optimization: 'GGA Structure Optimization'>, 'mp-1896563': <CalcType.GGA_Static: 'GGA Static'>, 'mp-1986879': <CalcType.GGA_Static: 'GGA Static'>}"
mp-1202935,Co4 P8 H52 C8 N4 O36,3.3787000000000003,"{'mp-1202935': <CalcType.GGA_U_Structure_Optimization: 'GGA+U Structure Optimization'>, 'mp-1844779': <CalcType.GGA_U_Static: 'GGA+U Static'>, 'mp-1983972': <CalcType.GGA_U_Static: 'GGA+U Static'>}"
mp-1203992,Tb4 H8 C8 S4 N4 O36,0.48550000000000004,"{'mp-1203992': <CalcType.GGA_Structure_Optimization: 'GGA Structure Optimization'>, 'mp-1361137': <CalcType.GGA_Static: 'GGA Static'>, 'mp-1897329': <CalcType.GGA_Static: 'GGA Static'>}"
mp-1204854,K4 Fe4 B4 P8 H4 O36,2.8184,"{'mp-1204854': <CalcType.GGA_U_Structure_Optimization: 'GGA+U Structure Optimization'>, 'mp-1889915': <CalcType.GGA_U_Static: 'GGA+U Static'>, 'mp-1986092': <CalcType.GGA_U_Static: 'GGA+U Static'>}"
mp-1205082,Sm4 H24 C8 S4 N4 O36,3.2493,"{'mp-1205082': <CalcType.GGA_Structure_Optimization: 'GGA Structure Optimization'>, 'mp-1348924': <CalcType.GGA_Static: 'GGA Static'>, 'mp-1920020': <CalcType.GGA_Static: 'GGA Static'>}"
mp-1204761,Ho4 H24 C24 Cl12 O36 F24,4.392,"{'mp-1204761': <CalcType.GGA_Structure_Optimization: 'GGA Structure Optimization'>, 'mp-1365737': <CalcType.GGA_Static: 'GGA Static'>}"
mp-1212322,K4 Gd4 H8 C8 S4 O36,2.7929999999999993,"{'mp-1212322': <CalcType.GGA_Structure_Optimization: 'GGA Structure Optimization'>, 'mp-1325441': <CalcType.GGA_Static: 'GGA Static'>, 'mp-1881711': <CalcType.GGA_Static: 'GGA Static'>}"
mp-24648,Rb4 Fe4 B4 P8 H4 O36,2.7445,"{'mp-818032': <CalcType.GGA_U_Static: 'GGA+U Static'>, 'mp-823967': <CalcType.GGA_U_NSCF_Line: 'GGA+U NSCF Line'>, 'mp-1239383': <CalcType.GGA_U_Structure_Optimization: 'GGA+U Structure Optimization'>, 'mp-729003': <CalcType.GGA_U_Structure_Optimization: 'GGA+U Structure Optimization'>, 'mp-24648': <CalcType.GGA_Structure_Optimization: 'GGA Structure Optimization'>, 'mp-724682': <CalcType.GGA_Static: 'GGA Static'>, 'mp-25761': <CalcType.GGA_U_Structure_Optimization: 'GGA+U Structure Optimization'>, 'mp-840966': <CalcType.GGA_NSCF_Line: 'GGA NSCF Line'>, 'mp-824792': <CalcType.GGA_U_NSCF_Line: 'GGA+U NSCF Line'>, 'mp-839683': <CalcType.GGA_Static: 'GGA Static'>, 'mp-840300': <CalcType.GGA_NSCF_Line: 'GGA NSCF Line'>, 'mp-1877164': <CalcType.GGA_U_Static: 'GGA+U Static'>}"
mp-542130,Rb4 Al4 B4 P8 H4 O36,5.4081,"{'mp-728071': <CalcType.GGA_Static: 'GGA Static'>, 'mp-864056': <CalcType.GGA_NSCF_Line: 'GGA NSCF Line'>, 'mp-542130': <CalcType.GGA_Structure_Optimization: 'GGA Structure Optimization'>, 'mp-1253089': <CalcType.GGA_NMR_Electric_Field_Gradient: 'GGA NMR Electric Field Gradient'>, 'mp-1254897': <CalcType.GGA_NMR_Nuclear_Shielding: 'GGA NMR Nuclear Shielding'>, 'mp-1266774': <CalcType.GGA_Structure_Optimization: 'GGA Structure Optimization'>, 'mp-1354846': <CalcType.GGA_Static: 'GGA Static'>, 'mp-737293': <CalcType.GGA_NSCF_Line: 'GGA NSCF Line'>, 'mp-1936174': <CalcType.GGA_Static: 'GGA Static'>}"
mp-542129,Cs4 Al4 B4 P8 H4 O36,5.393000000000001,"{'mp-864058': <CalcType.GGA_NSCF_Line: 'GGA NSCF Line'>, 'mp-728916': <CalcType.GGA_Static: 'GGA Static'>, 'mp-542129': <CalcType.GGA_Structure_Optimization: 'GGA Structure Optimization'>, 'mp-1254453': <CalcType.GGA_NMR_Nuclear_Shielding: 'GGA NMR Nuclear Shielding'>, 'mp-1254934': <CalcType.GGA_NMR_Electric_Field_Gradient: 'GGA NMR Electric Field Gradient'>, 'mp-1265938': <CalcType.GGA_Structure_Optimization: 'GGA Structure Optimization'>, 'mp-1354049': <CalcType.GGA_Static: 'GGA Static'>, 'mp-737851': <CalcType.GGA_NSCF_Line: 'GGA NSCF Line'>, 'mp-864375': <CalcType.GGA_NSCF_Line: 'GGA NSCF Line'>, 'mp-1874517': <CalcType.GGA_Static: 'GGA Static'>, 'mp-2903361': <CalcType.r2SCAN_Structure_Optimization: 'r2SCAN Structure Optimization'>}"