Material ID,Composition,Band Gap,Calc Types
mp-1235867,Ba6 Li1 Nb2 Ir1 Cl2 O12,1.542199999999999,"{'mp-1235867': <CalcType.GGA_Structure_Optimization: 'GGA Structure Optimization'>, 'mp-1236218': <CalcType.GGA_Static: 'GGA Static'>}"
mp-1234047,Ba6 Mg1 Nb2 Ir1 Cl2 O12,0.0,"{'mp-1234047': <CalcType.GGA_Structure_Optimization: 'GGA Structure Optimization'>, 'mp-2216812': <CalcType.GGA_Static: 'GGA Static'>, 'mp-2221031': <CalcType.GGA_Static: 'GGA Static'>, 'mp-2220665': <CalcType.GGA_Structure_Optimization: 'GGA Structure Optimization'>}"
mp-684996,Ba3 La1 Zn1 Re1 W1 O12,2.043799999999999,"{'mp-705508': <CalcType.GGA_U_Structure_Optimization: 'GGA+U Structure Optimization'>, 'mp-817824': <CalcType.GGA_U_Static: 'GGA+U Static'>, 'mp-823557': <CalcType.GGA_U_NSCF_Line: 'GGA+U NSCF Line'>, 'mp-724565': <CalcType.GGA_Static: 'GGA Static'>, 'mp-839485': <CalcType.GGA_Static: 'GGA Static'>, 'mp-840452': <CalcType.GGA_NSCF_Line: 'GGA NSCF Line'>, 'mp-684996': <CalcType.GGA_Structure_Optimization: 'GGA Structure Optimization'>, 'mp-1324039': <CalcType.GGA_U_Static: 'GGA+U Static'>, 'mp-1681763': <CalcType.GGA_U_NSCF_Uniform: 'GGA+U NSCF Uniform'>, 'mp-1935417': <CalcType.GGA_U_Static: 'GGA+U Static'>, 'mp-841572': <CalcType.GGA_NSCF_Line: 'GGA NSCF Line'>, 'mp-824291': <CalcType.GGA_U_NSCF_Line: 'GGA+U NSCF Line'>}"
mp-2230108,Ba3 La1 Mg1 In1 W2 O12,1.843,"{'mp-2230108': <CalcType.GGA_U_Static: 'GGA+U Static'>, 'mp-2230149': <CalcType.GGA_U_Structure_Optimization: 'GGA+U Structure Optimization'>}"
mp-1234510,Ba6 Mg1 Nb2 Ir1 Cl2 O12,0.0,"{'mp-1234510': <CalcType.GGA_Static: 'GGA Static'>, 'mp-1234696': <CalcType.GGA_Structure_Optimization: 'GGA Structure Optimization'>, 'mp-2221015': <CalcType.GGA_Structure_Optimization: 'GGA Structure Optimization'>, 'mp-2220575': <CalcType.GGA_Static: 'GGA Static'>}"
mp-534904,Ba6 La6 Mg6 Ti3 W3 O36,0.0,"{'mp-534904': <CalcType.GGA_Structure_Optimization: 'GGA Structure Optimization'>, 'mp-725716': <CalcType.GGA_Static: 'GGA Static'>, 'mp-1889256': <CalcType.GGA_U_Static: 'GGA+U Static'>}"
mp-562139,Li1 Co1 H24 C8 N8 O12,2.7276,"{'mp-656028': <CalcType.GGA_U_Static: 'GGA+U Static'>, 'mp-669016': <CalcType.GGA_U_NSCF_Line: 'GGA+U NSCF Line'>, 'mp-659216': <CalcType.GGA_U_NSCF_Line: 'GGA+U NSCF Line'>, 'mp-600348': <CalcType.GGA_U_Structure_Optimization: 'GGA+U Structure Optimization'>, 'mp-562824': <CalcType.GGA_Structure_Optimization: 'GGA Structure Optimization'>, 'mp-562139': <CalcType.GGA_Structure_Optimization: 'GGA Structure Optimization'>, 'mp-834508': <CalcType.GGA_NSCF_Line: 'GGA NSCF Line'>, 'mp-825286': <CalcType.GGA_Static: 'GGA Static'>, 'mp-654889': <CalcType.GGA_Static: 'GGA Static'>, 'mp-1346460': <CalcType.GGA_U_Static: 'GGA+U Static'>, 'mp-1933852': <CalcType.GGA_U_Static: 'GGA+U Static'>, 'mp-835285': <CalcType.GGA_NSCF_Line: 'GGA NSCF Line'>}"
mp-1234370,Ba6 Ca1 Nb2 Ir1 Cl2 O12,0.0,{'mp-1234370': <CalcType.GGA_Structure_Optimization: 'GGA Structure Optimization'>}
mp-1235620,Ba6 Li1 Nb2 Ir1 Cl2 O12,0.0,"{'mp-1235620': <CalcType.GGA_Structure_Optimization: 'GGA Structure Optimization'>, 'mp-1236472': <CalcType.GGA_Static: 'GGA Static'>}"
mp-2230018,Ba2 La2 Mg1 Zn1 W2 O12,1.686499999999999,"{'mp-2230128': <CalcType.GGA_U_Static: 'GGA+U Static'>, 'mp-2230018': <CalcType.GGA_U_Structure_Optimization: 'GGA+U Structure Optimization'>}"
mp-542264,Ba2 Na2 Ce4 C8 O24 F2,0.24960000000000002,"{'mp-927338': <CalcType.GGA_NSCF_Line: 'GGA NSCF Line'>, 'mp-927967': <CalcType.GGA_NSCF_Line: 'GGA NSCF Line'>, 'mp-917628': <CalcType.GGA_Static: 'GGA Static'>, 'mp-542264': <CalcType.GGA_Structure_Optimization: 'GGA Structure Optimization'>, 'mp-1410569': <CalcType.GGA_Static: 'GGA Static'>, 'mp-1725641': <CalcType.GGA_NSCF_Uniform: 'GGA NSCF Uniform'>, 'mp-2921964': <CalcType.GGA_Structure_Optimization: 'GGA Structure Optimization'>, 'mp-2921958': <CalcType.GGA_Deformation: 'GGA Deformation'>, 'mp-2921972': <CalcType.GGA_Deformation: 'GGA Deformation'>, 'mp-2922003': <CalcType.GGA_Deformation: 'GGA Deformation'>, 'mp-2922035': <CalcType.GGA_Deformation: 'GGA Deformation'>, 'mp-2922040': <CalcType.GGA_Deformation: 'GGA Deformation'>, 'mp-2922043': <CalcType.GGA_Deformation: 'GGA Deformation'>, 'mp-2922052': <CalcType.GGA_Deformation: 'GGA Deformation'>, 'mp-2922175': <CalcType.GGA_Deformation: 'GGA Deformation'>, 'mp-2922201': <CalcType.GGA_Deformation: 'GGA Deformation'>, 'mp-2922212': <CalcType.GGA_Deformation: 'GGA Deformation'>, 'mp-2922222': <CalcType.GGA_Deformation: 'GGA Deformation'>, 'mp-2922256': <CalcType.GGA_Deformation: 'GGA Deformation'>, 'mp-2922260': <CalcType.GGA_Deformation: 'GGA Deformation'>, 'mp-2922269': <CalcType.GGA_Deformation: 'GGA Deformation'>, 'mp-2922278': <CalcType.GGA_Deformation: 'GGA Deformation'>, 'mp-2922303': <CalcType.GGA_Deformation: 'GGA Deformation'>, 'mp-2922327': <CalcType.GGA_Deformation: 'GGA Deformation'>}"
mp-1202262,Na4 Ca4 P4 H72 S4 O48,0.00030000000000000003,"{'mp-1202262': <CalcType.GGA_Structure_Optimization: 'GGA Structure Optimization'>, 'mp-1338815': <CalcType.GGA_Static: 'GGA Static'>, 'mp-1846209': <CalcType.GGA_Static: 'GGA Static'>}"
mp-1201060,Na4 Sr4 P4 H72 S4 O48,4.0609,"{'mp-1201060': <CalcType.GGA_Structure_Optimization: 'GGA Structure Optimization'>, 'mp-1238658': <CalcType.GGA_Structure_Optimization: 'GGA Structure Optimization'>, 'mp-1336630': <CalcType.GGA_Static: 'GGA Static'>, 'mp-2896277': <CalcType.r2SCAN_Structure_Optimization: 'r2SCAN Structure Optimization'>}"
mp-709432,Na4 H12 C16 S16 O48 F48,6.2926,"{'mp-734409': <CalcType.GGA_NSCF_Line: 'GGA NSCF Line'>, 'mp-729849': <CalcType.GGA_Static: 'GGA Static'>, 'mp-709432': <CalcType.GGA_Structure_Optimization: 'GGA Structure Optimization'>, 'mp-1336195': <CalcType.GGA_Static: 'GGA Static'>, 'mp-738354': <CalcType.GGA_NSCF_Line: 'GGA NSCF Line'>}"
mp-560036,Li8 Ca12 Be12 Si12 O48 F8,5.8431000000000015,"{'mp-1017978': <CalcType.GGA_NSCF_Line: 'GGA NSCF Line'>, 'mp-711712': <CalcType.GGA_NSCF_Line: 'GGA NSCF Line'>, 'mp-695583': <CalcType.GGA_Static: 'GGA Static'>, 'mp-1017820': <CalcType.GGA_NSCF_Line: 'GGA NSCF Line'>, 'mp-717533': <CalcType.GGA_NSCF_Line: 'GGA NSCF Line'>, 'mp-560036': <CalcType.GGA_Structure_Optimization: 'GGA Structure Optimization'>, 'mp-1134234': <CalcType.GGA_Structure_Optimization: 'GGA Structure Optimization'>, 'mp-1328890': <CalcType.GGA_Static: 'GGA Static'>, 'mp-1849749': <CalcType.GGA_Static: 'GGA Static'>, 'mp-1583742': <CalcType.GGA_NSCF_Line: 'GGA NSCF Line'>}"
mp-1195110,Na2 Fe2 H44 C20 N4 O24,2.561499999999998,"{'mp-1195110': <CalcType.GGA_U_Structure_Optimization: 'GGA+U Structure Optimization'>, 'mp-1851296': <CalcType.GGA_U_Static: 'GGA+U Static'>}"
mp-1201200,Mn1 H20 C2 S2 N6 O12,4.7606,"{'mp-1201200': <CalcType.GGA_U_Structure_Optimization: 'GGA+U Structure Optimization'>, 'mp-1202373': <CalcType.GGA_U_Structure_Optimization: 'GGA+U Structure Optimization'>, 'mp-1389092': <CalcType.GGA_U_Static: 'GGA+U Static'>, 'mp-1737602': <CalcType.GGA_U_NSCF_Uniform: 'GGA+U NSCF Uniform'>, 'mp-1839106': <CalcType.GGA_U_Static: 'GGA+U Static'>}"
mp-1201845,Li1 Au1 C4 S4 O12 F12,1.5318,"{'mp-1201845': <CalcType.GGA_Structure_Optimization: 'GGA Structure Optimization'>, 'mp-1387603': <CalcType.GGA_Static: 'GGA Static'>, 'mp-1826511': <CalcType.GGA_Static: 'GGA Static'>}"
mp-1202992,Na1 H12 Au1 C4 S4 O12,2.2327,"{'mp-1202992': <CalcType.GGA_Structure_Optimization: 'GGA Structure Optimization'>, 'mp-1442832': <CalcType.GGA_Static: 'GGA Static'>, 'mp-1752685': <CalcType.GGA_NSCF_Uniform: 'GGA NSCF Uniform'>, 'mp-1823086': <CalcType.GGA_Static: 'GGA Static'>, 'mp-1623002': <CalcType.GGA_NSCF_Line: 'GGA NSCF Line'>, 'mp-2115168': <CalcType.GGA_NSCF_Line: 'GGA NSCF Line'>, 'mp-2306178': <CalcType.GGA_NSCF_Line: 'GGA NSCF Line'>}"
mp-1204215,Cd1 H20 C2 S2 N6 O12,4.4107,"{'mp-1204215': <CalcType.GGA_Structure_Optimization: 'GGA Structure Optimization'>, 'mp-1822460': <CalcType.GGA_Static: 'GGA Static'>, 'mp-1986889': <CalcType.GGA_Static: 'GGA Static'>}"
mp-1204531,H46 Ru2 S4 N10 Cl2 O24,0.0229,"{'mp-1204531': <CalcType.GGA_Structure_Optimization: 'GGA Structure Optimization'>, 'mp-1238499': <CalcType.GGA_Structure_Optimization: 'GGA Structure Optimization'>, 'mp-1328141': <CalcType.GGA_Static: 'GGA Static'>, 'mp-1657195': <CalcType.GGA_Static: 'GGA Static'>, 'mp-1920232': <CalcType.GGA_Static: 'GGA Static'>}"
mp-1217856,Tb2 Ag2 H36 C40 N12 O24,2.9866,"{'mp-1217856': <CalcType.GGA_Structure_Optimization: 'GGA Structure Optimization'>, 'mp-1845014': <CalcType.GGA_Static: 'GGA Static'>}"
mp-1221003,Nd2 Ag2 H36 C40 N12 O24,3.032499999999999,"{'mp-1221003': <CalcType.GGA_Structure_Optimization: 'GGA Structure Optimization'>, 'mp-1851264': <CalcType.GGA_Static: 'GGA Static'>}"
mp-24273,Cd1 H20 C4 S4 N2 O12,4.837,"{'mp-728727': <CalcType.GGA_Static: 'GGA Static'>, 'mp-733282': <CalcType.GGA_NSCF_Line: 'GGA NSCF Line'>, 'mp-24273': <CalcType.GGA_Structure_Optimization: 'GGA Structure Optimization'>, 'mp-1391858': <CalcType.GGA_Static: 'GGA Static'>, 'mp-1729157': <CalcType.GGA_NSCF_Uniform: 'GGA NSCF Uniform'>, 'mp-1816135': <CalcType.GGA_Static: 'GGA Static'>, 'mp-737744': <CalcType.GGA_NSCF_Line: 'GGA NSCF Line'>}"
mp-2220391,Ba6 Mg1 Nb2 Ir1 Cl2 O12,0.056299999999999004,"{'mp-2220978': <CalcType.GGA_Static: 'GGA Static'>, 'mp-2220391': <CalcType.GGA_Static: 'GGA Static'>, 'mp-2220825': <CalcType.GGA_Structure_Optimization: 'GGA Structure Optimization'>, 'mp-2221091': <CalcType.GGA_Structure_Optimization: 'GGA Structure Optimization'>}"
mp-24272,Ca1 H20 C4 S4 N2 O12,5.8002,"{'mp-726137': <CalcType.GGA_Static: 'GGA Static'>, 'mp-740186': <CalcType.GGA_NSCF_Line: 'GGA NSCF Line'>, 'mp-24272': <CalcType.GGA_Structure_Optimization: 'GGA Structure Optimization'>, 'mp-1395233': <CalcType.GGA_Static: 'GGA Static'>, 'mp-1820818': <CalcType.GGA_Static: 'GGA Static'>, 'mp-748201': <CalcType.GGA_NSCF_Line: 'GGA NSCF Line'>}"
mp-535004,Zn8 P12 H76 C16 N8 O48,4.831399999999999,"{'mp-535004': <CalcType.GGA_Structure_Optimization: 'GGA Structure Optimization'>, 'mp-1100826': <CalcType.GGA_Structure_Optimization: 'GGA Structure Optimization'>}"
mp-558297,Na4 Ce4 Ti2 Si2 C4 O24,0.0,"{'mp-558297': <CalcType.GGA_Structure_Optimization: 'GGA Structure Optimization'>, 'mp-1331168': <CalcType.GGA_Static: 'GGA Static'>, 'mp-1738523': <CalcType.GGA_NSCF_Uniform: 'GGA NSCF Uniform'>}"
mp-690848,Cd1 H20 C2 S2 N6 O12,0.251,"{'mp-690848': <CalcType.GGA_Structure_Optimization: 'GGA Structure Optimization'>, 'mp-1002378': <CalcType.GGA_Static: 'GGA Static'>, 'mp-1003972': <CalcType.GGA_NSCF_Line: 'GGA NSCF Line'>, 'mp-1348109': <CalcType.GGA_Static: 'GGA Static'>, 'mp-1887279': <CalcType.GGA_Static: 'GGA Static'>, 'mp-1009303': <CalcType.GGA_NSCF_Line: 'GGA NSCF Line'>}"
mp-707443,Na7 Al1 H2 C4 O12 F4,4.805499999999999,"{'mp-707443': <CalcType.GGA_Structure_Optimization: 'GGA Structure Optimization'>, 'mp-733291': <CalcType.GGA_NSCF_Line: 'GGA NSCF Line'>, 'mp-728719': <CalcType.GGA_Static: 'GGA Static'>, 'mp-1255084': <CalcType.GGA_NMR_Electric_Field_Gradient: 'GGA NMR Electric Field Gradient'>, 'mp-1260993': <CalcType.GGA_NMR_Nuclear_Shielding: 'GGA NMR Nuclear Shielding'>, 'mp-1267880': <CalcType.GGA_Structure_Optimization: 'GGA Structure Optimization'>, 'mp-1403685': <CalcType.GGA_Static: 'GGA Static'>, 'mp-1735611': <CalcType.GGA_NSCF_Uniform: 'GGA NSCF Uniform'>, 'mp-1843875': <CalcType.GGA_Static: 'GGA Static'>, 'mp-737748': <CalcType.GGA_NSCF_Line: 'GGA NSCF Line'>, 'mp-1616248': <CalcType.GGA_NSCF_Line: 'GGA NSCF Line'>, 'mp-2149588': <CalcType.GGA_NSCF_Line: 'GGA NSCF Line'>, 'mp-2443000': <CalcType.GGA_NSCF_Line: 'GGA NSCF Line'>}"
mp-1202441,Cr4 Ni4 H128 N26 Cl22 O24,3.7332,{'mp-1202441': <CalcType.GGA_U_Structure_Optimization: 'GGA+U Structure Optimization'>}
mp-1203580,Na8 Ga6 Ge6 B2 H8 O24,3.563799999999999,"{'mp-1203580': <CalcType.GGA_Structure_Optimization: 'GGA Structure Optimization'>, 'mp-1345505': <CalcType.GGA_Static: 'GGA Static'>, 'mp-1893965': <CalcType.GGA_Static: 'GGA Static'>}"
mp-534870,Na8 Ga6 Si6 B2 H8 O24,4.2524,"{'mp-534870': <CalcType.GGA_Structure_Optimization: 'GGA Structure Optimization'>, 'mp-1117779': <CalcType.GGA_DFPT_Dielectric: 'GGA DFPT Dielectric'>, 'mp-1134117': <CalcType.GGA_Structure_Optimization: 'GGA Structure Optimization'>, 'mp-1249150': <CalcType.GGA_Structure_Optimization: 'GGA Structure Optimization'>, 'mp-1259387': <CalcType.GGA_NMR_Electric_Field_Gradient: 'GGA NMR Electric Field Gradient'>, 'mp-1266772': <CalcType.GGA_NMR_Nuclear_Shielding: 'GGA NMR Nuclear Shielding'>, 'mp-1331160': <CalcType.GGA_Static: 'GGA Static'>, 'mp-1870212': <CalcType.GGA_Static: 'GGA Static'>}"
mp-694981,Na8 Al6 Si6 B2 H8 O24,4.9487000000000005,"{'mp-694981': <CalcType.GGA_Structure_Optimization: 'GGA Structure Optimization'>, 'mp-740088': <CalcType.GGA_NSCF_Line: 'GGA NSCF Line'>, 'mp-725955': <CalcType.GGA_Static: 'GGA Static'>, 'mp-1133991': <CalcType.GGA_Structure_Optimization: 'GGA Structure Optimization'>, 'mp-1248211': <CalcType.GGA_Structure_Optimization: 'GGA Structure Optimization'>, 'mp-1250886': <CalcType.GGA_Structure_Optimization: 'GGA Structure Optimization'>, 'mp-1256274': <CalcType.GGA_NMR_Electric_Field_Gradient: 'GGA NMR Electric Field Gradient'>, 'mp-1257067': <CalcType.GGA_NMR_Nuclear_Shielding: 'GGA NMR Nuclear Shielding'>, 'mp-1258628': <CalcType.GGA_NMR_Nuclear_Shielding: 'GGA NMR Nuclear Shielding'>, 'mp-1260282': <CalcType.GGA_NMR_Electric_Field_Gradient: 'GGA NMR Electric Field Gradient'>, 'mp-1352153': <CalcType.GGA_Static: 'GGA Static'>, 'mp-1876525': <CalcType.GGA_Static: 'GGA Static'>, 'mp-747535': <CalcType.GGA_NSCF_Line: 'GGA NSCF Line'>, 'mp-2912384': <CalcType.r2SCAN_Structure_Optimization: 'r2SCAN Structure Optimization'>}"
mp-535042,Na8 Al6 Ge6 B2 H8 O24,4.2134,"{'mp-535042': <CalcType.GGA_Structure_Optimization: 'GGA Structure Optimization'>, 'mp-1117909': <CalcType.GGA_DFPT_Dielectric: 'GGA DFPT Dielectric'>, 'mp-1255408': <CalcType.GGA_NMR_Electric_Field_Gradient: 'GGA NMR Electric Field Gradient'>, 'mp-1266098': <CalcType.GGA_NMR_Nuclear_Shielding: 'GGA NMR Nuclear Shielding'>, 'mp-1266491': <CalcType.GGA_Structure_Optimization: 'GGA Structure Optimization'>, 'mp-1325904': <CalcType.GGA_Static: 'GGA Static'>, 'mp-1874586': <CalcType.GGA_Static: 'GGA Static'>}"
mp-1196037,Zn1 H20 Pd1 C4 N4 O12,3.0881,"{'mp-1196037': <CalcType.GGA_Structure_Optimization: 'GGA Structure Optimization'>, 'mp-1818191': <CalcType.GGA_Static: 'GGA Static'>, 'mp-1987806': <CalcType.GGA_Static: 'GGA Static'>}"
mp-1197007,Ni1 H20 Pt1 C4 N4 O12,2.3293,"{'mp-1197007': <CalcType.GGA_U_Structure_Optimization: 'GGA+U Structure Optimization'>, 'mp-1386986': <CalcType.GGA_U_Static: 'GGA+U Static'>, 'mp-1737589': <CalcType.GGA_U_NSCF_Uniform: 'GGA+U NSCF Uniform'>, 'mp-1821425': <CalcType.GGA_U_Static: 'GGA+U Static'>}"
mp-1197411,Co1 H20 Pt1 C4 N4 O12,3.026,"{'mp-1197411': <CalcType.GGA_U_Structure_Optimization: 'GGA+U Structure Optimization'>, 'mp-1237460': <CalcType.GGA_U_Structure_Optimization: 'GGA+U Structure Optimization'>, 'mp-1394933': <CalcType.GGA_U_Static: 'GGA+U Static'>, 'mp-1739025': <CalcType.GGA_U_NSCF_Uniform: 'GGA+U NSCF Uniform'>, 'mp-1818135': <CalcType.GGA_U_Static: 'GGA+U Static'>}"
mp-1199354,Zn1 H20 Pt1 C4 N4 O12,3.0854,"{'mp-1199354': <CalcType.GGA_Structure_Optimization: 'GGA Structure Optimization'>, 'mp-1817067': <CalcType.GGA_Static: 'GGA Static'>, 'mp-1985941': <CalcType.GGA_Static: 'GGA Static'>}"
mp-1201334,Ni1 H20 Pd1 C4 N4 O12,3.066,"{'mp-1201334': <CalcType.GGA_U_Structure_Optimization: 'GGA+U Structure Optimization'>, 'mp-1817416': <CalcType.GGA_U_Static: 'GGA+U Static'>, 'mp-1986791': <CalcType.GGA_U_Static: 'GGA+U Static'>}"
mp-1173823,Na4 Ca4 Al4 Fe4 Si16 O48,3.4003,"{'mp-1173823': <CalcType.GGA_U_Structure_Optimization: 'GGA+U Structure Optimization'>, 'mp-1897143': <CalcType.GGA_U_Static: 'GGA+U Static'>}"
mp-759846,Li12 Mn4 Fe4 Co4 P12 O48,2.295,"{'mp-764804': <CalcType.GGA_U_Structure_Optimization: 'GGA+U Structure Optimization'>, 'mp-800467': <CalcType.GGA_U_NSCF_Line: 'GGA+U NSCF Line'>, 'mp-799727': <CalcType.GGA_U_Static: 'GGA+U Static'>, 'mp-759846': <CalcType.GGA_Structure_Optimization: 'GGA Structure Optimization'>, 'mp-1655356': <CalcType.GGA_U_Static: 'GGA+U Static'>}"
mp-698033,K2 Al4 P4 H16 O24 F2,5.1432,"{'mp-743145': <CalcType.GGA_NSCF_Line: 'GGA NSCF Line'>, 'mp-698033': <CalcType.GGA_Structure_Optimization: 'GGA Structure Optimization'>, 'mp-732230': <CalcType.GGA_Static: 'GGA Static'>, 'mp-1249602': <CalcType.GGA_Structure_Optimization: 'GGA Structure Optimization'>, 'mp-1258290': <CalcType.GGA_NMR_Electric_Field_Gradient: 'GGA NMR Electric Field Gradient'>, 'mp-1258740': <CalcType.GGA_NMR_Nuclear_Shielding: 'GGA NMR Nuclear Shielding'>, 'mp-1374401': <CalcType.GGA_Static: 'GGA Static'>, 'mp-1824548': <CalcType.GGA_Static: 'GGA Static'>, 'mp-749883': <CalcType.GGA_NSCF_Line: 'GGA NSCF Line'>}"
mp-1211222,Na8 Al12 Si12 H4 N4 O48,0.186,"{'mp-1211222': <CalcType.GGA_Structure_Optimization: 'GGA Structure Optimization'>, 'mp-1335240': <CalcType.GGA_Static: 'GGA Static'>}"
mp-1218551,Sr3 Y2 Fe1 Cu3 Bi1 O12,0.0,"{'mp-1218551': <CalcType.GGA_U_Structure_Optimization: 'GGA+U Structure Optimization'>, 'mp-1345790': <CalcType.GGA_U_Static: 'GGA+U Static'>, 'mp-1657214': <CalcType.GGA_U_Static: 'GGA+U Static'>, 'mp-1806550': <CalcType.GGA_U_Static: 'GGA+U Static'>}"
mp-1207539,Zn4 P6 H20 C2 N6 O24,4.3833,"{'mp-1207539': <CalcType.GGA_Structure_Optimization: 'GGA Structure Optimization'>, 'mp-1880613': <CalcType.GGA_Static: 'GGA Static'>}"
mp-1233039,K2 Ba1 Mg1 Co1 N6 O12,0.109199999999999,"{'mp-1233039': <CalcType.GGA_U_Structure_Optimization: 'GGA+U Structure Optimization'>, 'mp-1234518': <CalcType.GGA_U_Static: 'GGA+U Static'>}"
mp-1236558,K2 Ba1 Li1 Co1 N6 O12,0.0,"{'mp-1236558': <CalcType.GGA_U_Structure_Optimization: 'GGA+U Structure Optimization'>, 'mp-1236572': <CalcType.GGA_U_Static: 'GGA+U Static'>}"
mp-1173587,Na2 Mn4 Fe2 Ag2 P6 O24,0.068999999999999,"{'mp-1173587': <CalcType.GGA_U_Structure_Optimization: 'GGA+U Structure Optimization'>, 'mp-1359240': <CalcType.GGA_U_Static: 'GGA+U Static'>, 'mp-1772790': <CalcType.GGA_U_Static: 'GGA+U Static'>, 'mp-1889405': <CalcType.GGA_U_Static: 'GGA+U Static'>}"
mp-1173820,Na4 Mn2 Cd2 Fe2 P6 O24,1.1625,"{'mp-1173820': <CalcType.GGA_U_Structure_Optimization: 'GGA+U Structure Optimization'>, 'mp-1356435': <CalcType.GGA_U_Static: 'GGA+U Static'>, 'mp-1772397': <CalcType.GGA_U_Static: 'GGA+U Static'>, 'mp-1923069': <CalcType.GGA_U_Static: 'GGA+U Static'>}"