Material ID,Composition,Band Gap,Calc Types
mp-2230401,K2 Na2 Nd2 Mg1 Nb2 O10,0.0,{'mp-2230401': <CalcType.GGA_Structure_Optimization: 'GGA Structure Optimization'>}
mp-2230626,K2 Na2 Eu2 Mg1 Nb2 O10,0.0,{'mp-2230626': <CalcType.GGA_Structure_Optimization: 'GGA Structure Optimization'>}
mp-2230291,K2 Na2 Pr2 Mg1 Nb2 O10,0.0,{'mp-2230291': <CalcType.GGA_Structure_Optimization: 'GGA Structure Optimization'>}
mp-2231300,K2 Na2 La2 Mg1 Nb2 O10,0.20540000000000003,{'mp-2231300': <CalcType.GGA_Structure_Optimization: 'GGA Structure Optimization'>}
mp-1223563,K1 Mg3 Al1 Si3 O11 F1,0.006500000000000001,"{'mp-1223563': <CalcType.GGA_Structure_Optimization: 'GGA Structure Optimization'>, 'mp-1331146': <CalcType.GGA_Static: 'GGA Static'>, 'mp-1777298': <CalcType.GGA_Static: 'GGA Static'>}"
mp-1180232,Na2 Ca4 Al4 As4 O22 F8,0.0,"{'mp-1180232': <CalcType.GGA_Structure_Optimization: 'GGA Structure Optimization'>, 'mp-1203193': <CalcType.GGA_Structure_Optimization: 'GGA Structure Optimization'>, 'mp-1342027': <CalcType.GGA_Static: 'GGA Static'>, 'mp-1937036': <CalcType.GGA_Static: 'GGA Static'>}"
mp-1214598,Ba2 Nd1 Dy1 Ti2 Cu2 O11,0.0,"{'mp-1214598': <CalcType.GGA_Structure_Optimization: 'GGA Structure Optimization'>, 'mp-1369066': <CalcType.GGA_Static: 'GGA Static'>, 'mp-1776200': <CalcType.GGA_Static: 'GGA Static'>}"
mp-1196454,Cu8 H52 C8 S8 N4 O44,0.0,"{'mp-1196454': <CalcType.GGA_Structure_Optimization: 'GGA Structure Optimization'>, 'mp-1334155': <CalcType.GGA_Static: 'GGA Static'>, 'mp-1658840': <CalcType.GGA_Static: 'GGA Static'>}"
mp-1203956,Mn4 Sn4 H64 C24 S12 O44,2.7708,"{'mp-1203956': <CalcType.GGA_U_Structure_Optimization: 'GGA+U Structure Optimization'>, 'mp-1981865': <CalcType.GGA_U_Static: 'GGA+U Static'>}"
mp-1224302,K4 V4 Fe4 P8 H20 O44,1.7810000000000001,"{'mp-1224302': <CalcType.GGA_U_Structure_Optimization: 'GGA+U Structure Optimization'>, 'mp-1332090': <CalcType.GGA_U_Static: 'GGA+U Static'>, 'mp-1894465': <CalcType.GGA_U_Static: 'GGA+U Static'>}"
mp-683831,Fe12 Mo4 C44 Se4 S12 O44,2.1224,"{'mp-838505': <CalcType.GGA_NSCF_Line: 'GGA NSCF Line'>, 'mp-1334560': <CalcType.GGA_U_Static: 'GGA+U Static'>, 'mp-821278': <CalcType.GGA_U_Static: 'GGA+U Static'>, 'mp-683831': <CalcType.GGA_U_Structure_Optimization: 'GGA+U Structure Optimization'>, 'mp-839544': <CalcType.GGA_NSCF_Line: 'GGA NSCF Line'>}"
mp-722880,Ba4 Re8 H48 C12 N24 O44,2.973799999999999,"{'mp-1335204': <CalcType.GGA_Static: 'GGA Static'>, 'mp-722880': <CalcType.GGA_Structure_Optimization: 'GGA Structure Optimization'>, 'mp-734923': <CalcType.GGA_Static: 'GGA Static'>, 'mp-845532': <CalcType.GGA_NSCF_Line: 'GGA NSCF Line'>, 'mp-745953': <CalcType.GGA_NSCF_Line: 'GGA NSCF Line'>}"
mp-1100919,V4 P8 H52 C4 N12 O44,2.8281,"{'mp-1100919': <CalcType.GGA_U_Structure_Optimization: 'GGA+U Structure Optimization'>, 'mp-1850372': <CalcType.GGA_U_Static: 'GGA+U Static'>}"
mp-1211027,Na6 Co6 B6 P12 H24 O66,0.12109999999999901,"{'mp-1211027': <CalcType.GGA_U_Structure_Optimization: 'GGA+U Structure Optimization'>, 'mp-1337527': <CalcType.GGA_U_Static: 'GGA+U Static'>}"
mp-1212004,Li6 Ni6 B6 P12 H36 O66,0.0,"{'mp-1212004': <CalcType.GGA_U_Structure_Optimization: 'GGA+U Structure Optimization'>, 'mp-1335545': <CalcType.GGA_U_Static: 'GGA+U Static'>, 'mp-1844705': <CalcType.GGA_U_Static: 'GGA+U Static'>}"
mp-1238728,Li6 Co6 B6 P12 H12 O66,0.0008999999999990001,"{'mp-1238728': <CalcType.GGA_U_Structure_Optimization: 'GGA+U Structure Optimization'>, 'mp-1334859': <CalcType.GGA_U_Static: 'GGA+U Static'>}"
mp-1195161,U4 H72 C16 Se8 N8 O44,2.3095,"{'mp-1195161': <CalcType.GGA_Structure_Optimization: 'GGA Structure Optimization'>, 'mp-1985992': <CalcType.GGA_Static: 'GGA Static'>}"
mp-1196668,Ce2 P8 H100 C24 Cl6 O22,0.193999999999999,{'mp-1196668': <CalcType.GGA_Structure_Optimization: 'GGA Structure Optimization'>}
mp-1197081,Na2 Mn4 Si6 B2 H4 O22,0.0,"{'mp-1197081': <CalcType.GGA_U_Structure_Optimization: 'GGA+U Structure Optimization'>, 'mp-1444863': <CalcType.GGA_U_Static: 'GGA+U Static'>, 'mp-1739168': <CalcType.GGA_U_NSCF_Uniform: 'GGA+U NSCF Uniform'>, 'mp-1769385': <CalcType.GGA_U_Static: 'GGA+U Static'>, 'mp-1820052': <CalcType.GGA_U_Static: 'GGA+U Static'>}"
mp-1199897,Ca2 Co2 B2 P4 H10 O22,3.3187,"{'mp-1199897': <CalcType.GGA_U_Structure_Optimization: 'GGA+U Structure Optimization'>, 'mp-1819075': <CalcType.GGA_U_Static: 'GGA+U Static'>, 'mp-1987708': <CalcType.GGA_U_Static: 'GGA+U Static'>}"
mp-1201288,Cd4 P4 H20 C2 Cl4 O22,3.7165,"{'mp-1201288': <CalcType.GGA_Structure_Optimization: 'GGA Structure Optimization'>, 'mp-1237053': <CalcType.GGA_Structure_Optimization: 'GGA Structure Optimization'>, 'mp-1372812': <CalcType.GGA_Static: 'GGA Static'>, 'mp-1870238': <CalcType.GGA_Static: 'GGA Static'>}"
mp-1204242,Np4 P8 H36 C8 N4 O44,0.3786,"{'mp-1204242': <CalcType.GGA_Structure_Optimization: 'GGA Structure Optimization'>, 'mp-1237689': <CalcType.GGA_Structure_Optimization: 'GGA Structure Optimization'>, 'mp-1328850': <CalcType.GGA_Static: 'GGA Static'>, 'mp-1850775': <CalcType.GGA_Static: 'GGA Static'>}"
mp-773906,K4 Na4 Zr4 Si12 H16 O44,4.997400000000001,"{'mp-773906': <CalcType.GGA_Structure_Optimization: 'GGA Structure Optimization'>, 'mp-787066': <CalcType.GGA_Static: 'GGA Static'>, 'mp-791820': <CalcType.GGA_NSCF_Line: 'GGA NSCF Line'>, 'mp-1134200': <CalcType.GGA_Structure_Optimization: 'GGA Structure Optimization'>, 'mp-1248180': <CalcType.GGA_Structure_Optimization: 'GGA Structure Optimization'>, 'mp-1257511': <CalcType.GGA_NMR_Electric_Field_Gradient: 'GGA NMR Electric Field Gradient'>, 'mp-1266209': <CalcType.GGA_NMR_Nuclear_Shielding: 'GGA NMR Nuclear Shielding'>, 'mp-1364605': <CalcType.GGA_Static: 'GGA Static'>, 'mp-792501': <CalcType.GGA_NSCF_Line: 'GGA NSCF Line'>, 'mp-2903110': <CalcType.r2SCAN_Structure_Optimization: 'r2SCAN Structure Optimization'>}"
mp-1218876,Sr4 Ce4 Y2 Co2 Cu4 O22,0.41840000000000005,"{'mp-1218876': <CalcType.GGA_U_Structure_Optimization: 'GGA+U Structure Optimization'>, 'mp-1331580': <CalcType.GGA_U_Static: 'GGA+U Static'>, 'mp-1659193': <CalcType.GGA_U_Static: 'GGA+U Static'>, 'mp-1878947': <CalcType.GGA_U_Static: 'GGA+U Static'>}"
mp-1226397,Cu1 H16 Pt1 C4 N4 O11,0.0361,"{'mp-1226397': <CalcType.GGA_Structure_Optimization: 'GGA Structure Optimization'>, 'mp-1359471': <CalcType.GGA_Static: 'GGA Static'>, 'mp-1844113': <CalcType.GGA_Static: 'GGA Static'>}"
mp-1226113,Cu1 H18 Pd1 C4 N4 O11,1.1055,"{'mp-1226113': <CalcType.GGA_Structure_Optimization: 'GGA Structure Optimization'>, 'mp-1837132': <CalcType.GGA_Static: 'GGA Static'>}"
mp-1223599,K2 Mg6 Al2 Si6 O22 F2,0.0018000000000000002,"{'mp-1223599': <CalcType.GGA_Structure_Optimization: 'GGA Structure Optimization'>, 'mp-1356390': <CalcType.GGA_Static: 'GGA Static'>, 'mp-1825003': <CalcType.GGA_Static: 'GGA Static'>}"
mp-1223631,K2 Mg6 Al2 Si6 O22 F2,0.0,"{'mp-1223631': <CalcType.GGA_Structure_Optimization: 'GGA Structure Optimization'>, 'mp-1380602': <CalcType.GGA_Static: 'GGA Static'>, 'mp-1684299': <CalcType.GGA_NSCF_Uniform: 'GGA NSCF Uniform'>, 'mp-1825286': <CalcType.GGA_Static: 'GGA Static'>}"
mp-744001,Fe4 H26 C12 N2 Cl4 O22,2.335,"{'mp-818370': <CalcType.GGA_U_Static: 'GGA+U Static'>, 'mp-744001': <CalcType.GGA_U_Structure_Optimization: 'GGA+U Structure Optimization'>, 'mp-824180': <CalcType.GGA_U_NSCF_Line: 'GGA+U NSCF Line'>, 'mp-1324465': <CalcType.GGA_U_Static: 'GGA+U Static'>, 'mp-1919938': <CalcType.GGA_U_Static: 'GGA+U Static'>, 'mp-825017': <CalcType.GGA_U_NSCF_Line: 'GGA+U NSCF Line'>}"
mp-2230196,Ba2 Tb2 Mg1 Ti2 Cu2 O11,0.0,{'mp-2230196': <CalcType.GGA_Structure_Optimization: 'GGA Structure Optimization'>}
mp-1173755,Na8 Al6 Si6 B2 O24 F8,0.532,"{'mp-1173755': <CalcType.GGA_Structure_Optimization: 'GGA Structure Optimization'>, 'mp-1328057': <CalcType.GGA_Static: 'GGA Static'>, 'mp-1873665': <CalcType.GGA_Static: 'GGA Static'>}"
mp-1173817,Na1 Al1 H22 C10 N2 O12,0.054799999999999,"{'mp-1173817': <CalcType.GGA_Structure_Optimization: 'GGA Structure Optimization'>, 'mp-1865259': <CalcType.GGA_Static: 'GGA Static'>}"
mp-1221365,Na4 Mn2 Cd2 Fe2 P6 O24,1.277299999999999,"{'mp-1221365': <CalcType.GGA_U_Structure_Optimization: 'GGA+U Structure Optimization'>, 'mp-1354676': <CalcType.GGA_U_Static: 'GGA+U Static'>, 'mp-1822955': <CalcType.GGA_U_Static: 'GGA+U Static'>}"
mp-1218309,Sr1 La2 Ce1 Mn2 Cr2 O12,0.16410000000000002,"{'mp-1218309': <CalcType.GGA_U_Structure_Optimization: 'GGA+U Structure Optimization'>, 'mp-1352914': <CalcType.GGA_U_Static: 'GGA+U Static'>, 'mp-1770233': <CalcType.GGA_U_Static: 'GGA+U Static'>, 'mp-1776348': <CalcType.GGA_U_Static: 'GGA+U Static'>}"
mp-1216399,Zn8 Ga4 P12 H32 N8 O48,3.9954,"{'mp-1216399': <CalcType.GGA_Structure_Optimization: 'GGA Structure Optimization'>, 'mp-1365864': <CalcType.GGA_Static: 'GGA Static'>, 'mp-1844379': <CalcType.GGA_Static: 'GGA Static'>}"
mp-1222066,Mg2 Ti8 Mn2 Zn2 Ni2 O24,2.3451,"{'mp-1222066': <CalcType.GGA_U_Structure_Optimization: 'GGA+U Structure Optimization'>, 'mp-1295039': <CalcType.GGA_U_Static: 'GGA+U Static'>, 'mp-1316788': <CalcType.GGA_U_Static: 'GGA+U Static'>, 'mp-1316122': <CalcType.GGA_U_Structure_Optimization: 'GGA+U Structure Optimization'>, 'mp-1322109': <CalcType.GGA_U_Structure_Optimization: 'GGA+U Structure Optimization'>, 'mp-1319976': <CalcType.GGA_U_Structure_Optimization: 'GGA+U Structure Optimization'>, 'mp-1314051': <CalcType.GGA_U_Structure_Optimization: 'GGA+U Structure Optimization'>, 'mp-1307502': <CalcType.GGA_U_Structure_Optimization: 'GGA+U Structure Optimization'>, 'mp-1306835': <CalcType.GGA_U_Static: 'GGA+U Static'>, 'mp-1301629': <CalcType.GGA_U_Structure_Optimization: 'GGA+U Structure Optimization'>, 'mp-1303151': <CalcType.GGA_U_Static: 'GGA+U Static'>, 'mp-1302482': <CalcType.GGA_U_Structure_Optimization: 'GGA+U Structure Optimization'>, 'mp-1311454': <CalcType.GGA_U_Structure_Optimization: 'GGA+U Structure Optimization'>, 'mp-1362459': <CalcType.GGA_U_Static: 'GGA+U Static'>, 'mp-1566876': <CalcType.GGA_U_Static: 'GGA+U Static'>, 'mp-1566951': <CalcType.GGA_U_Static: 'GGA+U Static'>, 'mp-1566081': <CalcType.GGA_U_Structure_Optimization: 'GGA+U Structure Optimization'>, 'mp-1566204': <CalcType.GGA_U_Structure_Optimization: 'GGA+U Structure Optimization'>, 'mp-1651009': <CalcType.GGA_U_Structure_Optimization: 'GGA+U Structure Optimization'>, 'mp-1640940': <CalcType.GGA_U_Static: 'GGA+U Static'>, 'mp-1647724': <CalcType.GGA_U_Structure_Optimization: 'GGA+U Structure Optimization'>, 'mp-1651386': <CalcType.GGA_U_Static: 'GGA+U Static'>, 'mp-1649094': <CalcType.GGA_U_Static: 'GGA+U Static'>, 'mp-1641872': <CalcType.GGA_U_Static: 'GGA+U Static'>, 'mp-1644160': <CalcType.GGA_U_Static: 'GGA+U Static'>, 'mp-1651606': <CalcType.GGA_U_Static: 'GGA+U Static'>, 'mp-1653754': <CalcType.GGA_U_Structure_Optimization: 'GGA+U Structure Optimization'>, 'mp-1642428': <CalcType.GGA_U_Structure_Optimization: 'GGA+U Structure Optimization'>, 'mp-1647426': <CalcType.GGA_U_Static: 'GGA+U Static'>, 'mp-1644276': <CalcType.GGA_U_Structure_Optimization: 'GGA+U Structure Optimization'>, 'mp-1647912': <CalcType.GGA_U_Static: 'GGA+U Static'>, 'mp-1648840': <CalcType.GGA_U_Structure_Optimization: 'GGA+U Structure Optimization'>, 'mp-1641628': <CalcType.GGA_U_Static: 'GGA+U Static'>, 'mp-1638947': <CalcType.GGA_U_Structure_Optimization: 'GGA+U Structure Optimization'>, 'mp-1639004': <CalcType.GGA_U_Structure_Optimization: 'GGA+U Structure Optimization'>, 'mp-1978318': <CalcType.GGA_U_Static: 'GGA+U Static'>, 'mp-1977426': <CalcType.GGA_U_Static: 'GGA+U Static'>, 'mp-1977750': <CalcType.GGA_U_Static: 'GGA+U Static'>, 'mp-1978011': <CalcType.GGA_U_Static: 'GGA+U Static'>, 'mp-1978473': <CalcType.GGA_U_Static: 'GGA+U Static'>, 'mp-1977516': <CalcType.GGA_U_Static: 'GGA+U Static'>, 'mp-1978042': <CalcType.GGA_U_Static: 'GGA+U Static'>, 'mp-1978434': <CalcType.GGA_U_Static: 'GGA+U Static'>, 'mp-1980649': <CalcType.GGA_U_Static: 'GGA+U Static'>}"
mp-1223622,K1 Al1 Co3 Si3 H2 O12,2.6524,"{'mp-1223622': <CalcType.GGA_U_Structure_Optimization: 'GGA+U Structure Optimization'>, 'mp-1343173': <CalcType.GGA_U_Static: 'GGA+U Static'>, 'mp-1923673': <CalcType.GGA_U_Static: 'GGA+U Static'>}"
mp-1223564,K1 Mg3 Al1 Si3 H2 O12,0.0,"{'mp-1223564': <CalcType.GGA_Structure_Optimization: 'GGA Structure Optimization'>, 'mp-1344836': <CalcType.GGA_Static: 'GGA Static'>, 'mp-1774624': <CalcType.GGA_Static: 'GGA Static'>}"
mp-1223621,K1 Al1 Si3 Ni3 H2 O12,0.0,"{'mp-1223621': <CalcType.GGA_U_Structure_Optimization: 'GGA+U Structure Optimization'>, 'mp-1380622': <CalcType.GGA_U_Static: 'GGA+U Static'>, 'mp-1778070': <CalcType.GGA_U_Static: 'GGA+U Static'>}"
mp-1223658,K1 Al3 Fe2 Si2 H2 O12,3.5502000000000002,"{'mp-1223658': <CalcType.GGA_U_Structure_Optimization: 'GGA+U Structure Optimization'>, 'mp-1377427': <CalcType.GGA_U_Static: 'GGA+U Static'>, 'mp-1569013': <CalcType.GGA_U_Structure_Optimization: 'GGA+U Structure Optimization'>, 'mp-1569901': <CalcType.GGA_U_Structure_Optimization: 'GGA+U Structure Optimization'>, 'mp-1569016': <CalcType.GGA_U_Structure_Optimization: 'GGA+U Structure Optimization'>, 'mp-1571465': <CalcType.GGA_U_Structure_Optimization: 'GGA+U Structure Optimization'>, 'mp-1569911': <CalcType.GGA_U_Structure_Optimization: 'GGA+U Structure Optimization'>, 'mp-1571924': <CalcType.GGA_U_Structure_Optimization: 'GGA+U Structure Optimization'>, 'mp-1571703': <CalcType.GGA_U_Structure_Optimization: 'GGA+U Structure Optimization'>, 'mp-1570592': <CalcType.GGA_U_Structure_Optimization: 'GGA+U Structure Optimization'>, 'mp-1571707': <CalcType.GGA_U_Structure_Optimization: 'GGA+U Structure Optimization'>, 'mp-1569045': <CalcType.GGA_U_Structure_Optimization: 'GGA+U Structure Optimization'>, 'mp-1573049': <CalcType.GGA_U_Structure_Optimization: 'GGA+U Structure Optimization'>, 'mp-1639136': <CalcType.GGA_U_Static: 'GGA+U Static'>, 'mp-1639664': <CalcType.GGA_U_Static: 'GGA+U Static'>, 'mp-1641467': <CalcType.GGA_U_Static: 'GGA+U Static'>, 'mp-1643755': <CalcType.GGA_U_Static: 'GGA+U Static'>, 'mp-1649194': <CalcType.GGA_U_Static: 'GGA+U Static'>, 'mp-1646937': <CalcType.GGA_U_Static: 'GGA+U Static'>, 'mp-1645589': <CalcType.GGA_U_Static: 'GGA+U Static'>, 'mp-1649674': <CalcType.GGA_U_Static: 'GGA+U Static'>, 'mp-1646052': <CalcType.GGA_U_Static: 'GGA+U Static'>, 'mp-1644726': <CalcType.GGA_U_Static: 'GGA+U Static'>, 'mp-1642571': <CalcType.GGA_U_Static: 'GGA+U Static'>, 'mp-1642156': <CalcType.GGA_U_Structure_Optimization: 'GGA+U Structure Optimization'>, 'mp-1643540': <CalcType.GGA_U_Static: 'GGA+U Static'>, 'mp-1667223': <CalcType.GGA_U_Structure_Optimization: 'GGA+U Structure Optimization'>, 'mp-1980317': <CalcType.GGA_U_Static: 'GGA+U Static'>, 'mp-1981041': <CalcType.GGA_U_Static: 'GGA+U Static'>, 'mp-1983694': <CalcType.GGA_U_Static: 'GGA+U Static'>, 'mp-1983390': <CalcType.GGA_U_Static: 'GGA+U Static'>, 'mp-1984134': <CalcType.GGA_U_Static: 'GGA+U Static'>, 'mp-1986463': <CalcType.GGA_U_Static: 'GGA+U Static'>, 'mp-1981536': <CalcType.GGA_U_Static: 'GGA+U Static'>, 'mp-1985517': <CalcType.GGA_U_Static: 'GGA+U Static'>, 'mp-1982217': <CalcType.GGA_U_Static: 'GGA+U Static'>, 'mp-1985899': <CalcType.GGA_U_Static: 'GGA+U Static'>, 'mp-1982294': <CalcType.GGA_U_Static: 'GGA+U Static'>, 'mp-1984983': <CalcType.GGA_U_Static: 'GGA+U Static'>}"
mp-1223547,K1 Mg3 Ga1 Si3 H2 O12,0.0,"{'mp-1223547': <CalcType.GGA_Structure_Optimization: 'GGA Structure Optimization'>, 'mp-1238459': <CalcType.GGA_Structure_Optimization: 'GGA Structure Optimization'>, 'mp-1378791': <CalcType.GGA_Static: 'GGA Static'>, 'mp-1775265': <CalcType.GGA_Static: 'GGA Static'>}"
mp-1223691,La3 Zn1 Cu1 Rh2 Pb1 O12,0.0,"{'mp-1223691': <CalcType.GGA_Structure_Optimization: 'GGA Structure Optimization'>, 'mp-1347366': <CalcType.GGA_Static: 'GGA Static'>, 'mp-1774603': <CalcType.GGA_Static: 'GGA Static'>}"
mp-1223578,K4 Mg8 Al4 Fe4 Si12 O48,1.060199999999999,"{'mp-1223578': <CalcType.GGA_U_Structure_Optimization: 'GGA+U Structure Optimization'>, 'mp-1368808': <CalcType.GGA_U_Static: 'GGA+U Static'>, 'mp-1316116': <CalcType.GGA_U_Structure_Optimization: 'GGA+U Structure Optimization'>, 'mp-1315586': <CalcType.GGA_U_Structure_Optimization: 'GGA+U Structure Optimization'>, 'mp-1309191': <CalcType.GGA_U_Structure_Optimization: 'GGA+U Structure Optimization'>, 'mp-1321206': <CalcType.GGA_U_Static: 'GGA+U Static'>, 'mp-1565530': <CalcType.GGA_U_Structure_Optimization: 'GGA+U Structure Optimization'>, 'mp-1567062': <CalcType.GGA_U_Static: 'GGA+U Static'>, 'mp-1566778': <CalcType.GGA_U_Structure_Optimization: 'GGA+U Structure Optimization'>, 'mp-1566414': <CalcType.GGA_U_Structure_Optimization: 'GGA+U Structure Optimization'>, 'mp-1648623': <CalcType.GGA_U_Structure_Optimization: 'GGA+U Structure Optimization'>, 'mp-1640046': <CalcType.GGA_U_Structure_Optimization: 'GGA+U Structure Optimization'>, 'mp-1645947': <CalcType.GGA_U_Structure_Optimization: 'GGA+U Structure Optimization'>, 'mp-1653559': <CalcType.GGA_U_Static: 'GGA+U Static'>, 'mp-1652158': <CalcType.GGA_U_Structure_Optimization: 'GGA+U Structure Optimization'>, 'mp-1645094': <CalcType.GGA_U_Static: 'GGA+U Static'>, 'mp-1650575': <CalcType.GGA_U_Structure_Optimization: 'GGA+U Structure Optimization'>, 'mp-1640667': <CalcType.GGA_U_Static: 'GGA+U Static'>, 'mp-1648848': <CalcType.GGA_U_Static: 'GGA+U Static'>, 'mp-1647964': <CalcType.GGA_U_Static: 'GGA+U Static'>, 'mp-1640291': <CalcType.GGA_U_Static: 'GGA+U Static'>, 'mp-1645254': <CalcType.GGA_U_Static: 'GGA+U Static'>, 'mp-1646253': <CalcType.GGA_U_Structure_Optimization: 'GGA+U Structure Optimization'>, 'mp-1666934': <CalcType.GGA_U_Structure_Optimization: 'GGA+U Structure Optimization'>, 'mp-1977423': <CalcType.GGA_U_Static: 'GGA+U Static'>, 'mp-1978648': <CalcType.GGA_U_Static: 'GGA+U Static'>, 'mp-1978291': <CalcType.GGA_U_Static: 'GGA+U Static'>, 'mp-1983717': <CalcType.GGA_U_Static: 'GGA+U Static'>, 'mp-1985447': <CalcType.GGA_U_Static: 'GGA+U Static'>, 'mp-1986809': <CalcType.GGA_U_Static: 'GGA+U Static'>, 'mp-1986154': <CalcType.GGA_U_Static: 'GGA+U Static'>, 'mp-1981932': <CalcType.GGA_U_Static: 'GGA+U Static'>, 'mp-1984915': <CalcType.GGA_U_Static: 'GGA+U Static'>, 'mp-1985252': <CalcType.GGA_U_Static: 'GGA+U Static'>, 'mp-1987268': <CalcType.GGA_U_Static: 'GGA+U Static'>}"
mp-1233016,Sr2 Pr2 Mg1 Fe2 Ru2 O12,0.0,"{'mp-1233016': <CalcType.GGA_U_Structure_Optimization: 'GGA+U Structure Optimization'>, 'mp-1234844': <CalcType.GGA_U_Static: 'GGA+U Static'>}"
mp-1233066,Ca1 La2 Co2 Sb2 Pb2 O12,0.9810999999999991,"{'mp-1233066': <CalcType.GGA_U_Structure_Optimization: 'GGA+U Structure Optimization'>, 'mp-1234196': <CalcType.GGA_U_Static: 'GGA+U Static'>}"
mp-1233131,Ca1 La2 Co2 Sb2 Pb2 O12,1.8872,"{'mp-1233131': <CalcType.GGA_U_Structure_Optimization: 'GGA+U Structure Optimization'>, 'mp-1234636': <CalcType.GGA_U_Static: 'GGA+U Static'>}"
mp-1232976,Sr2 Li1 Pr2 Fe2 Ru2 O12,0.0,"{'mp-1232976': <CalcType.GGA_U_Static: 'GGA+U Static'>, 'mp-1235449': <CalcType.GGA_U_Structure_Optimization: 'GGA+U Structure Optimization'>}"
mp-1233533,Sr2 Pr2 Mg1 Fe2 Ru2 O12,0.0,"{'mp-1233533': <CalcType.GGA_U_Structure_Optimization: 'GGA+U Structure Optimization'>, 'mp-1234018': <CalcType.GGA_U_Static: 'GGA+U Static'>}"
mp-1233092,Mg1 H4 C4 S4 O12 F12,2.206,{'mp-1233092': <CalcType.GGA_Structure_Optimization: 'GGA Structure Optimization'>}
mp-1233102,La2 Mg1 Co2 Sb2 Pb2 O12,0.926199999999999,"{'mp-1233102': <CalcType.GGA_U_Static: 'GGA+U Static'>, 'mp-1233150': <CalcType.GGA_U_Structure_Optimization: 'GGA+U Structure Optimization'>}"
mp-1233463,La2 Mg1 Co2 Sb2 Pb2 O12,1.799999999999999,"{'mp-1233463': <CalcType.GGA_U_Structure_Optimization: 'GGA+U Structure Optimization'>, 'mp-1234684': <CalcType.GGA_U_Static: 'GGA+U Static'>}"
mp-1233527,Sr2 Pr2 Mg1 Fe2 Ru2 O12,0.0,"{'mp-1233527': <CalcType.GGA_U_Static: 'GGA+U Static'>, 'mp-1234064': <CalcType.GGA_U_Structure_Optimization: 'GGA+U Structure Optimization'>}"